
     Program PWSCF v.6.7MaX starts on 22Mar2023 at 16:51:21 

     This program is part of the open-source Quantum ESPRESSO suite
     for quantum simulation of materials; please cite
         "P. Giannozzi et al., J. Phys.:Condens. Matter 21 395502 (2009);
         "P. Giannozzi et al., J. Phys.:Condens. Matter 29 465901 (2017);
          URL http://www.quantum-espresso.org", 
     in publications or presentations arising from this work. More details at
     http://www.quantum-espresso.org/quote

     Parallel version (MPI), running on     1 processors

     MPI processes distributed on     1 nodes
     Reading input from si.bandspy.in

     Current dimensions of program PWSCF are:
     Max number of different atomic species (ntypx) = 10
     Max number of k-points (npk) =  40000
     Max angular momentum in pseudopotentials (lmaxx) =  3

     Subspace diagonalization in iterative solution of the eigenvalue problem:
     a serial algorithm will be used


     G-vector sticks info
     --------------------
     sticks:   dense  smooth     PW     G-vecs:    dense   smooth      PW
     Sum         313     313     97                 3719     3719     645



     bravais-lattice index     =            2
     lattice parameter (alat)  =      10.7000  a.u.
     unit-cell volume          =     306.2607 (a.u.)^3
     number of atoms/cell      =            2
     number of atomic types    =            1
     number of electrons       =         8.00
     number of Kohn-Sham states=            8
     kinetic-energy cutoff     =      20.0000  Ry
     charge density cutoff     =      80.0000  Ry
     scf convergence threshold =      1.0E-06
     mixing beta               =       0.6000
     number of iterations used =            8  plain     mixing
     Exchange-correlation=  SLA  PZ   NOGX NOGC
                           (   1   1   0   0   0   0   0)

     celldm(1)=  10.700000  celldm(2)=   0.000000  celldm(3)=   0.000000
     celldm(4)=   0.000000  celldm(5)=   0.000000  celldm(6)=   0.000000

     crystal axes: (cart. coord. in units of alat)
               a(1) = (  -0.500000   0.000000   0.500000 )  
               a(2) = (   0.000000   0.500000   0.500000 )  
               a(3) = (  -0.500000   0.500000   0.000000 )  

     reciprocal axes: (cart. coord. in units 2 pi/alat)
               b(1) = ( -1.000000 -1.000000  1.000000 )  
               b(2) = (  1.000000  1.000000  1.000000 )  
               b(3) = ( -1.000000  1.000000 -1.000000 )  


     PseudoPot. # 1 for Si read from file:
     pseudo/Si.pz-vbc.UPF
     MD5 check sum: 6dfa03ddd5817404712e03e4d12deb78
     Pseudo is Norm-conserving, Zval =  4.0
     Generated by new atomic code, or converted to UPF format
     Using radial grid of  431 points,  2 beta functions with: 
                l(1) =   0
                l(2) =   1

     atomic species   valence    mass     pseudopotential
        Si             4.00    28.08600     Si( 1.00)

     48 Sym. Ops., with inversion, found (24 have fractional translation)



   Cartesian axes

     site n.     atom                  positions (alat units)
         1           Si  tau(   1) = (   0.0000000   0.0000000   0.0000000  )
         2           Si  tau(   2) = (   0.2500000   0.2500000   0.2500000  )

     number of k points=    51
                       cart. coord. in units 2pi/alat
        k(    1) = (   0.0000000   0.0000000   0.0000000), wk =   0.0000000
        k(    2) = (   0.0000000   0.0000000   0.0200000), wk =   0.0015686
        k(    3) = (   0.0000000   0.0000000   0.0400000), wk =   0.0031373
        k(    4) = (   0.0000000   0.0000000   0.0600000), wk =   0.0047059
        k(    5) = (   0.0000000   0.0000000   0.0800000), wk =   0.0062745
        k(    6) = (   0.0000000   0.0000000   0.1000000), wk =   0.0078431
        k(    7) = (   0.0000000   0.0000000   0.1200000), wk =   0.0094118
        k(    8) = (   0.0000000   0.0000000   0.1400000), wk =   0.0109804
        k(    9) = (   0.0000000   0.0000000   0.1600000), wk =   0.0125490
        k(   10) = (   0.0000000   0.0000000   0.1800000), wk =   0.0141176
        k(   11) = (   0.0000000   0.0000000   0.2000000), wk =   0.0156863
        k(   12) = (   0.0000000   0.0000000   0.2200000), wk =   0.0172549
        k(   13) = (   0.0000000   0.0000000   0.2400000), wk =   0.0188235
        k(   14) = (   0.0000000   0.0000000   0.2600000), wk =   0.0203922
        k(   15) = (   0.0000000   0.0000000   0.2800000), wk =   0.0219608
        k(   16) = (   0.0000000   0.0000000   0.3000000), wk =   0.0235294
        k(   17) = (   0.0000000   0.0000000   0.3200000), wk =   0.0250980
        k(   18) = (   0.0000000   0.0000000   0.3400000), wk =   0.0266667
        k(   19) = (   0.0000000   0.0000000   0.3600000), wk =   0.0282353
        k(   20) = (   0.0000000   0.0000000   0.3800000), wk =   0.0298039
        k(   21) = (   0.0000000   0.0000000   0.4000000), wk =   0.0313725
        k(   22) = (   0.0000000   0.0000000   0.4200000), wk =   0.0329412
        k(   23) = (   0.0000000   0.0000000   0.4400000), wk =   0.0345098
        k(   24) = (   0.0000000   0.0000000   0.4600000), wk =   0.0360784
        k(   25) = (   0.0000000   0.0000000   0.4800000), wk =   0.0376471
        k(   26) = (   0.0000000   0.0000000   0.5000000), wk =   0.0392157
        k(   27) = (   0.0000000   0.0000000   0.5200000), wk =   0.0407843
        k(   28) = (   0.0000000   0.0000000   0.5400000), wk =   0.0423529
        k(   29) = (   0.0000000   0.0000000   0.5600000), wk =   0.0439216
        k(   30) = (   0.0000000   0.0000000   0.5800000), wk =   0.0454902
        k(   31) = (   0.0000000   0.0000000   0.6000000), wk =   0.0470588
        k(   32) = (   0.0000000   0.0000000   0.6200000), wk =   0.0486275
        k(   33) = (   0.0000000   0.0000000   0.6400000), wk =   0.0501961
        k(   34) = (   0.0000000   0.0000000   0.6600000), wk =   0.0517647
        k(   35) = (   0.0000000   0.0000000   0.6800000), wk =   0.0533333
        k(   36) = (   0.0000000   0.0000000   0.7000000), wk =   0.0549020
        k(   37) = (   0.0000000   0.0000000   0.7200000), wk =   0.0564706
        k(   38) = (   0.0000000   0.0000000   0.7400000), wk =   0.0580392
        k(   39) = (   0.0000000   0.0000000   0.7600000), wk =   0.0596078
        k(   40) = (   0.0000000   0.0000000   0.7800000), wk =   0.0611765
        k(   41) = (   0.0000000   0.0000000   0.8000000), wk =   0.0627451
        k(   42) = (   0.0000000   0.0000000   0.8200000), wk =   0.0643137
        k(   43) = (   0.0000000   0.0000000   0.8400000), wk =   0.0658824
        k(   44) = (   0.0000000   0.0000000   0.8600000), wk =   0.0674510
        k(   45) = (   0.0000000   0.0000000   0.8800000), wk =   0.0690196
        k(   46) = (   0.0000000   0.0000000   0.9000000), wk =   0.0705882
        k(   47) = (   0.0000000   0.0000000   0.9200000), wk =   0.0721569
        k(   48) = (   0.0000000   0.0000000   0.9400000), wk =   0.0737255
        k(   49) = (   0.0000000   0.0000000   0.9600000), wk =   0.0752941
        k(   50) = (   0.0000000   0.0000000   0.9800000), wk =   0.0768627
        k(   51) = (   0.0000000   0.0000000   1.0000000), wk =   0.0784314

     Dense  grid:     3719 G-vectors     FFT dimensions: (  24,  24,  24)

     Estimated max dynamical RAM per process >       5.79 MB

     Initial potential from superposition of free atoms

     starting charge    7.99901, renormalised to    8.00000
     Starting wfcs are    8 randomized atomic wfcs

     total cpu time spent up to now is        0.1 secs

     Self-consistent Calculation

     iteration #  1     ecut=    20.00 Ry     beta= 0.60
     Davidson diagonalization with overlap
     ethr =  1.00E-02,  avg # of iterations =  2.9

     Threshold (ethr) on eigenvalues was too large:
     Diagonalizing with lowered threshold

     Davidson diagonalization with overlap
     ethr =  9.05E-04,  avg # of iterations =  1.1

     total cpu time spent up to now is        0.7 secs

     total energy              =     -15.71311539 Ry
     estimated scf accuracy    <       0.07517509 Ry

     iteration #  2     ecut=    20.00 Ry     beta= 0.60
     Davidson diagonalization with overlap
     ethr =  9.40E-04,  avg # of iterations =  1.0

     total cpu time spent up to now is        0.9 secs

     total energy              =     -15.71476426 Ry
     estimated scf accuracy    <       0.00651278 Ry

     iteration #  3     ecut=    20.00 Ry     beta= 0.60
     Davidson diagonalization with overlap
     ethr =  8.14E-05,  avg # of iterations =  2.1

     total cpu time spent up to now is        1.1 secs

     total energy              =     -15.71512347 Ry
     estimated scf accuracy    <       0.00012440 Ry

     iteration #  4     ecut=    20.00 Ry     beta= 0.60
     Davidson diagonalization with overlap
     ethr =  1.56E-06,  avg # of iterations =  3.2

     total cpu time spent up to now is        1.4 secs

     End of self-consistent calculation

          k = 0.0000 0.0000 0.0000 (   459 PWs)   bands (ev):

    -6.1274   5.0464   5.0464   5.0464   6.9791   7.4435   7.4435   7.4435

          k = 0.0000 0.0000 0.0200 (   459 PWs)   bands (ev):

    -6.1259   5.0296   5.0395   5.0395   6.9956   7.4394   7.4523   7.4523

          k = 0.0000 0.0000 0.0400 (   459 PWs)   bands (ev):

    -6.1211   4.9810   5.0192   5.0192   7.0433   7.4269   7.4784   7.4784

          k = 0.0000 0.0000 0.0600 (   459 PWs)   bands (ev):

    -6.1132   4.9047   4.9864   4.9864   7.1178   7.4065   7.5208   7.5208

          k = 0.0000 0.0000 0.0800 (   467 PWs)   bands (ev):

    -6.1026   4.8055   4.9422   4.9422   7.2135   7.3779   7.5779   7.5779

          k = 0.0000 0.0000 0.1000 (   467 PWs)   bands (ev):

    -6.0884   4.6898   4.8885   4.8885   7.3250   7.3428   7.6489   7.6489

          k = 0.0000 0.0000 0.1200 (   475 PWs)   bands (ev):

    -6.0716   4.5591   4.8256   4.8256   7.2997   7.4475   7.7290   7.7290

          k = 0.0000 0.0000 0.1400 (   475 PWs)   bands (ev):

    -6.0511   4.4208   4.7572   4.7572   7.2524   7.5771   7.8222   7.8222

          k = 0.0000 0.0000 0.1600 (   475 PWs)   bands (ev):

    -6.0275   4.2753   4.6836   4.6836   7.2001   7.7102   7.9243   7.9243

          k = 0.0000 0.0000 0.1800 (   479 PWs)   bands (ev):

    -6.0003   4.1230   4.6069   4.6069   7.1429   7.8440   8.0319   8.0319

          k = 0.0000 0.0000 0.2000 (   479 PWs)   bands (ev):

    -5.9705   3.9681   4.5263   4.5263   7.0828   7.9755   8.1484   8.1485

          k = 0.0000 0.0000 0.2200 (   479 PWs)   bands (ev):

    -5.9375   3.8101   4.4436   4.4436   7.0199   8.1018   8.2708   8.2708

          k = 0.0000 0.0000 0.2400 (   479 PWs)   bands (ev):

    -5.9013   3.6499   4.3595   4.3595   6.9547   8.2195   8.3982   8.3983

          k = 0.0000 0.0000 0.2600 (   471 PWs)   bands (ev):

    -5.8610   3.4882   4.2762   4.2762   6.8880   8.3252   8.5301   8.5301

          k = 0.0000 0.0000 0.2800 (   471 PWs)   bands (ev):

    -5.8187   3.3249   4.1911   4.1911   6.8201   8.4144   8.6658   8.6658

          k = 0.0000 0.0000 0.3000 (   471 PWs)   bands (ev):

    -5.7733   3.1607   4.1063   4.1063   6.7516   8.4833   8.8049   8.8049

          k = 0.0000 0.0000 0.3200 (   471 PWs)   bands (ev):

    -5.7248   2.9957   4.0220   4.0220   6.6830   8.5279   8.9470   8.9470

          k = 0.0000 0.0000 0.3400 (   471 PWs)   bands (ev):

    -5.6732   2.8301   3.9387   3.9387   6.6147   8.5457   9.0918   9.0918

          k = 0.0000 0.0000 0.3600 (   471 PWs)   bands (ev):

    -5.6186   2.6642   3.8564   3.8564   6.5470   8.5361   9.2389   9.2389

          k = 0.0000 0.0000 0.3800 (   471 PWs)   bands (ev):

    -5.5610   2.4981   3.7755   3.7755   6.4802   8.5003   9.3883   9.3883

          k = 0.0000 0.0000 0.4000 (   472 PWs)   bands (ev):

    -5.5004   2.3319   3.6962   3.6962   6.4141   8.4417   9.5395   9.5395

          k = 0.0000 0.0000 0.4200 (   472 PWs)   bands (ev):

    -5.4367   2.1656   3.6186   3.6186   6.3500   8.3642   9.6925   9.6925

          k = 0.0000 0.0000 0.4400 (   472 PWs)   bands (ev):

    -5.3700   1.9993   3.5429   3.5429   6.2877   8.2721   9.8471   9.8471

          k = 0.0000 0.0000 0.4600 (   464 PWs)   bands (ev):

    -5.2992   1.8340   3.4698   3.4698   6.2274   8.1693  10.0032  10.0032

          k = 0.0000 0.0000 0.4800 (   464 PWs)   bands (ev):

    -5.2266   1.6680   3.3982   3.3982   6.1692   8.0587  10.1605  10.1605

          k = 0.0000 0.0000 0.5000 (   456 PWs)   bands (ev):

    -5.1508   1.5023   3.3289   3.3289   6.1134   7.9474  10.3198  10.3198

          k = 0.0000 0.0000 0.5200 (   456 PWs)   bands (ev):

    -5.0723   1.3368   3.2617   3.2617   6.0600   7.8285  10.4795  10.4795

          k = 0.0000 0.0000 0.5400 (   456 PWs)   bands (ev):

    -4.9910   1.1717   3.1968   3.1968   6.0092   7.7083  10.6402  10.6402

          k = 0.0000 0.0000 0.5600 (   456 PWs)   bands (ev):

    -4.9068   1.0070   3.1343   3.1343   5.9612   7.5879  10.8018  10.8018

          k = 0.0000 0.0000 0.5800 (   456 PWs)   bands (ev):

    -4.8198   0.8428   3.0742   3.0742   5.9161   7.4685  10.9643  10.9643

          k = 0.0000 0.0000 0.6000 (   456 PWs)   bands (ev):

    -4.7299   0.6790   3.0167   3.0167   5.8739   7.3507  11.1274  11.1275

          k = 0.0000 0.0000 0.6200 (   456 PWs)   bands (ev):

    -4.6373   0.5159   2.9618   2.9618   5.8349   7.2352  11.2914  11.2914

          k = 0.0000 0.0000 0.6400 (   456 PWs)   bands (ev):

    -4.5419   0.3533   2.9095   2.9095   5.7991   7.1224  11.4559  11.4559

          k = 0.0000 0.0000 0.6600 (   452 PWs)   bands (ev):

    -4.4430   0.1907   2.8602   2.8602   5.7666   7.0127  11.6221  11.6221

          k = 0.0000 0.0000 0.6800 (   456 PWs)   bands (ev):

    -4.3424   0.0290   2.8131   2.8131   5.7363   6.9060  11.7856  11.7856

          k = 0.0000 0.0000 0.7000 (   452 PWs)   bands (ev):

    -4.2389  -0.1314   2.7690   2.7690   5.7105   6.8038  11.9524  11.9524

          k = 0.0000 0.0000 0.7200 (   452 PWs)   bands (ev):

    -4.1328  -0.2909   2.7274   2.7274   5.6883   6.7053  12.1183  12.1183

          k = 0.0000 0.0000 0.7400 (   452 PWs)   bands (ev):

    -4.0241  -0.4494   2.6886   2.6886   5.6696   6.6107  12.2842  12.2842

          k = 0.0000 0.0000 0.7600 (   452 PWs)   bands (ev):

    -3.9128  -0.6070   2.6526   2.6526   5.6546   6.5203  12.4498  12.4498

          k = 0.0000 0.0000 0.7800 (   452 PWs)   bands (ev):

    -3.7991  -0.7635   2.6195   2.6195   5.6434   6.4343  12.6148  12.6148

          k = 0.0000 0.0000 0.8000 (   452 PWs)   bands (ev):

    -3.6828  -0.9189   2.5891   2.5891   5.6359   6.3525  12.7788  12.7788

          k = 0.0000 0.0000 0.8200 (   452 PWs)   bands (ev):

    -3.5642  -1.0730   2.5616   2.5616   5.6323   6.2752  12.9412  12.9412

          k = 0.0000 0.0000 0.8400 (   452 PWs)   bands (ev):

    -3.4431  -1.2259   2.5370   2.5370   5.6326   6.2023  13.1012  13.1012

          k = 0.0000 0.0000 0.8600 (   452 PWs)   bands (ev):

    -3.3198  -1.3774   2.5152   2.5152   5.6368   6.1338  13.2576  13.2576

          k = 0.0000 0.0000 0.8800 (   452 PWs)   bands (ev):

    -3.1941  -1.5274   2.4963   2.4963   5.6451   6.0698  13.4088  13.4088

          k = 0.0000 0.0000 0.9000 (   452 PWs)   bands (ev):

    -3.0662  -1.6760   2.4803   2.4803   5.6574   6.0102  13.5524  13.5524

          k = 0.0000 0.0000 0.9200 (   456 PWs)   bands (ev):

    -2.9362  -1.8239   2.4670   2.4670   5.6734   5.9550  13.6824  13.6824

          k = 0.0000 0.0000 0.9400 (   460 PWs)   bands (ev):

    -2.8040  -1.9693   2.4568   2.4568   5.6916   5.9043  13.7986  13.7986

          k = 0.0000 0.0000 0.9600 (   460 PWs)   bands (ev):

    -2.6697  -2.1131   2.4495   2.4495   5.7163   5.8580  13.8915  13.8915

          k = 0.0000 0.0000 0.9800 (   468 PWs)   bands (ev):

    -2.5336  -2.2552   2.4444   2.4444   5.7440   5.8148  13.9524  13.9524

          k = 0.0000 0.0000 1.0000 (   468 PWs)   bands (ev):

    -2.3954  -2.3954   2.4430   2.4430   5.7772   5.7772  13.9738  13.9739

     highest occupied, lowest unoccupied level (ev):     5.0395    5.6323

!    total energy              =     -15.71513620 Ry
     estimated scf accuracy    <       0.00000039 Ry

     The total energy is the sum of the following terms:
     one-electron contribution =       3.78517558 Ry
     hartree contribution      =       1.32452963 Ry
     xc contribution           =      -4.71479118 Ry
     ewald contribution        =     -16.11005023 Ry

     convergence has been achieved in   4 iterations

     Writing output data file tmp/silicon.save/

     init_run     :      0.11s CPU      0.11s WALL (       1 calls)
     electrons    :      1.24s CPU      1.25s WALL (       1 calls)

     Called by init_run:
     wfcinit      :      0.09s CPU      0.09s WALL (       1 calls)
     potinit      :      0.00s CPU      0.00s WALL (       1 calls)
     hinit0       :      0.01s CPU      0.01s WALL (       1 calls)

     Called by electrons:
     c_bands      :      1.06s CPU      1.06s WALL (       5 calls)
     sum_band     :      0.18s CPU      0.18s WALL (       5 calls)
     v_of_rho     :      0.00s CPU      0.00s WALL (       5 calls)
     mix_rho      :      0.00s CPU      0.00s WALL (       5 calls)

     Called by c_bands:
     init_us_2    :      0.02s CPU      0.02s WALL (     561 calls)
     cegterg      :      1.04s CPU      1.04s WALL (     255 calls)

     Called by *egterg:
     cdiaghg      :      0.03s CPU      0.03s WALL (     733 calls)
     h_psi        :      0.91s CPU      0.91s WALL (     835 calls)
     g_psi        :      0.01s CPU      0.01s WALL (     529 calls)

     Called by h_psi:
     h_psi:calbec :      0.03s CPU      0.03s WALL (     835 calls)
     vloc_psi     :      0.85s CPU      0.85s WALL (     835 calls)
     add_vuspsi   :      0.03s CPU      0.03s WALL (     835 calls)

     General routines
     calbec       :      0.03s CPU      0.03s WALL (     835 calls)
     fft          :      0.00s CPU      0.01s WALL (      15 calls)
     ffts         :      0.00s CPU      0.00s WALL (       5 calls)
     fftw         :      0.85s CPU      0.86s WALL (   12714 calls)

     Parallel routines

     PWSCF        :      1.37s CPU      1.39s WALL


   This run was terminated on:  16:51:22  22Mar2023            

=------------------------------------------------------------------------------=
   JOB DONE.
=------------------------------------------------------------------------------=
