
     Program PWSCF v.6.7MaX starts on 24Mar2023 at 10:20: 6 

     This program is part of the open-source Quantum ESPRESSO suite
     for quantum simulation of materials; please cite
         "P. Giannozzi et al., J. Phys.:Condens. Matter 21 395502 (2009);
         "P. Giannozzi et al., J. Phys.:Condens. Matter 29 465901 (2017);
          URL http://www.quantum-espresso.org", 
     in publications or presentations arising from this work. More details at
     http://www.quantum-espresso.org/quote

     Parallel version (MPI), running on     1 processors

     MPI processes distributed on     1 nodes
     Reading input from si.bandspy.in

     Current dimensions of program PWSCF are:
     Max number of different atomic species (ntypx) = 10
     Max number of k-points (npk) =  40000
     Max angular momentum in pseudopotentials (lmaxx) =  3

     Subspace diagonalization in iterative solution of the eigenvalue problem:
     a serial algorithm will be used


     G-vector sticks info
     --------------------
     sticks:   dense  smooth     PW     G-vecs:    dense   smooth      PW
     Sum         313     313    121                 3719     3719     869



     bravais-lattice index     =            2
     lattice parameter (alat)  =      10.7000  a.u.
     unit-cell volume          =     306.2607 (a.u.)^3
     number of atoms/cell      =            2
     number of atomic types    =            1
     number of electrons       =         8.00
     number of Kohn-Sham states=            8
     kinetic-energy cutoff     =      20.0000  Ry
     charge density cutoff     =      80.0000  Ry
     scf convergence threshold =      1.0E-06
     mixing beta               =       0.6000
     number of iterations used =            8  plain     mixing
     Exchange-correlation=  SLA  PZ   NOGX NOGC
                           (   1   1   0   0   0   0   0)

     celldm(1)=  10.700000  celldm(2)=   0.000000  celldm(3)=   0.000000
     celldm(4)=   0.000000  celldm(5)=   0.000000  celldm(6)=   0.000000

     crystal axes: (cart. coord. in units of alat)
               a(1) = (  -0.500000   0.000000   0.500000 )  
               a(2) = (   0.000000   0.500000   0.500000 )  
               a(3) = (  -0.500000   0.500000   0.000000 )  

     reciprocal axes: (cart. coord. in units 2 pi/alat)
               b(1) = ( -1.000000 -1.000000  1.000000 )  
               b(2) = (  1.000000  1.000000  1.000000 )  
               b(3) = ( -1.000000  1.000000 -1.000000 )  


     PseudoPot. # 1 for Si read from file:
     pseudo/Si.pz-vbc.UPF
     MD5 check sum: 6dfa03ddd5817404712e03e4d12deb78
     Pseudo is Norm-conserving, Zval =  4.0
     Generated by new atomic code, or converted to UPF format
     Using radial grid of  431 points,  2 beta functions with: 
                l(1) =   0
                l(2) =   1

     atomic species   valence    mass     pseudopotential
        Si             4.00    28.08600     Si( 1.00)

     48 Sym. Ops., with inversion, found (24 have fractional translation)



   Cartesian axes

     site n.     atom                  positions (alat units)
         1           Si  tau(   1) = (   0.0000000   0.0000000   0.0000000  )
         2           Si  tau(   2) = (   0.2500000   0.2500000   0.2500000  )

     number of k points=    51
                       cart. coord. in units 2pi/alat
        k(    1) = (   0.9000000   0.9000000   0.0000000), wk =   0.0000000
        k(    2) = (   0.9000000   0.9000000   0.0200000), wk =   0.0015686
        k(    3) = (   0.9000000   0.9000000   0.0400000), wk =   0.0031373
        k(    4) = (   0.9000000   0.9000000   0.0600000), wk =   0.0047059
        k(    5) = (   0.9000000   0.9000000   0.0800000), wk =   0.0062745
        k(    6) = (   0.9000000   0.9000000   0.1000000), wk =   0.0078431
        k(    7) = (   0.9000000   0.9000000   0.1200000), wk =   0.0094118
        k(    8) = (   0.9000000   0.9000000   0.1400000), wk =   0.0109804
        k(    9) = (   0.9000000   0.9000000   0.1600000), wk =   0.0125490
        k(   10) = (   0.9000000   0.9000000   0.1800000), wk =   0.0141176
        k(   11) = (   0.9000000   0.9000000   0.2000000), wk =   0.0156863
        k(   12) = (   0.9000000   0.9000000   0.2200000), wk =   0.0172549
        k(   13) = (   0.9000000   0.9000000   0.2400000), wk =   0.0188235
        k(   14) = (   0.9000000   0.9000000   0.2600000), wk =   0.0203922
        k(   15) = (   0.9000000   0.9000000   0.2800000), wk =   0.0219608
        k(   16) = (   0.9000000   0.9000000   0.3000000), wk =   0.0235294
        k(   17) = (   0.9000000   0.9000000   0.3200000), wk =   0.0250980
        k(   18) = (   0.9000000   0.9000000   0.3400000), wk =   0.0266667
        k(   19) = (   0.9000000   0.9000000   0.3600000), wk =   0.0282353
        k(   20) = (   0.9000000   0.9000000   0.3800000), wk =   0.0298039
        k(   21) = (   0.9000000   0.9000000   0.4000000), wk =   0.0313725
        k(   22) = (   0.9000000   0.9000000   0.4200000), wk =   0.0329412
        k(   23) = (   0.9000000   0.9000000   0.4400000), wk =   0.0345098
        k(   24) = (   0.9000000   0.9000000   0.4600000), wk =   0.0360784
        k(   25) = (   0.9000000   0.9000000   0.4800000), wk =   0.0376471
        k(   26) = (   0.9000000   0.9000000   0.5000000), wk =   0.0392157
        k(   27) = (   0.9000000   0.9000000   0.5200000), wk =   0.0407843
        k(   28) = (   0.9000000   0.9000000   0.5400000), wk =   0.0423529
        k(   29) = (   0.9000000   0.9000000   0.5600000), wk =   0.0439216
        k(   30) = (   0.9000000   0.9000000   0.5800000), wk =   0.0454902
        k(   31) = (   0.9000000   0.9000000   0.6000000), wk =   0.0470588
        k(   32) = (   0.9000000   0.9000000   0.6200000), wk =   0.0486275
        k(   33) = (   0.9000000   0.9000000   0.6400000), wk =   0.0501961
        k(   34) = (   0.9000000   0.9000000   0.6600000), wk =   0.0517647
        k(   35) = (   0.9000000   0.9000000   0.6800000), wk =   0.0533333
        k(   36) = (   0.9000000   0.9000000   0.7000000), wk =   0.0549020
        k(   37) = (   0.9000000   0.9000000   0.7200000), wk =   0.0564706
        k(   38) = (   0.9000000   0.9000000   0.7400000), wk =   0.0580392
        k(   39) = (   0.9000000   0.9000000   0.7600000), wk =   0.0596078
        k(   40) = (   0.9000000   0.9000000   0.7800000), wk =   0.0611765
        k(   41) = (   0.9000000   0.9000000   0.8000000), wk =   0.0627451
        k(   42) = (   0.9000000   0.9000000   0.8200000), wk =   0.0643137
        k(   43) = (   0.9000000   0.9000000   0.8400000), wk =   0.0658824
        k(   44) = (   0.9000000   0.9000000   0.8600000), wk =   0.0674510
        k(   45) = (   0.9000000   0.9000000   0.8800000), wk =   0.0690196
        k(   46) = (   0.9000000   0.9000000   0.9000000), wk =   0.0705882
        k(   47) = (   0.9000000   0.9000000   0.9200000), wk =   0.0721569
        k(   48) = (   0.9000000   0.9000000   0.9400000), wk =   0.0737255
        k(   49) = (   0.9000000   0.9000000   0.9600000), wk =   0.0752941
        k(   50) = (   0.9000000   0.9000000   0.9800000), wk =   0.0768627
        k(   51) = (   0.9000000   0.9000000   1.0000000), wk =   0.0784314

     Dense  grid:     3719 G-vectors     FFT dimensions: (  24,  24,  24)

     Estimated max dynamical RAM per process >       5.79 MB

     Initial potential from superposition of free atoms

     starting charge    7.99901, renormalised to    8.00000
     Starting wfcs are    8 randomized atomic wfcs

     total cpu time spent up to now is        0.1 secs

     Self-consistent Calculation

     iteration #  1     ecut=    20.00 Ry     beta= 0.60
     Davidson diagonalization with overlap
     ethr =  1.00E-02,  avg # of iterations =  2.9

     total cpu time spent up to now is        0.5 secs

     total energy              =     -15.27043187 Ry
     estimated scf accuracy    <       0.11180509 Ry

     iteration #  2     ecut=    20.00 Ry     beta= 0.60
     Davidson diagonalization with overlap
     ethr =  1.40E-03,  avg # of iterations =  1.2

     total cpu time spent up to now is        0.7 secs

     total energy              =     -15.27378492 Ry
     estimated scf accuracy    <       0.00962671 Ry

     iteration #  3     ecut=    20.00 Ry     beta= 0.60
     Davidson diagonalization with overlap
     ethr =  1.20E-04,  avg # of iterations =  2.9

     total cpu time spent up to now is        0.9 secs

     total energy              =     -15.27451182 Ry
     estimated scf accuracy    <       0.00016049 Ry

     iteration #  4     ecut=    20.00 Ry     beta= 0.60
     Davidson diagonalization with overlap
     ethr =  2.01E-06,  avg # of iterations =  4.1

     total cpu time spent up to now is        1.3 secs

     total energy              =     -15.27457957 Ry
     estimated scf accuracy    <       0.00000310 Ry

     iteration #  5     ecut=    20.00 Ry     beta= 0.60
     Davidson diagonalization with overlap
     ethr =  3.88E-08,  avg # of iterations =  2.5

     total cpu time spent up to now is        1.5 secs

     End of self-consistent calculation

          k = 0.9000 0.9000 0.0000 (   462 PWs)   bands (ev):

    -2.2989  -2.1680   2.1264   2.6283   5.8723   6.5163  13.5589  13.6548

          k = 0.9000 0.9000 0.0200 (   461 PWs)   bands (ev):

    -2.3833  -2.0820   2.1284   2.6298   5.8734   6.5199  13.5376  13.6195

          k = 0.9000 0.9000 0.0400 (   461 PWs)   bands (ev):

    -2.5094  -1.9513   2.1341   2.6341   5.8757   6.5302  13.4769  13.5267

          k = 0.9000 0.9000 0.0600 (   461 PWs)   bands (ev):

    -2.6383  -1.8145   2.1437   2.6414   5.8796   6.5474  13.3859  13.3994

          k = 0.9000 0.9000 0.0800 (   460 PWs)   bands (ev):

    -2.7669  -1.6753   2.1570   2.6515   5.8858   6.5717  13.2535  13.2733

          k = 0.9000 0.9000 0.1000 (   458 PWs)   bands (ev):

    -2.8939  -1.5339   2.1742   2.6647   5.8933   6.6022  13.0973  13.1488

          k = 0.9000 0.9000 0.1200 (   458 PWs)   bands (ev):

    -3.0192  -1.3916   2.1953   2.6806   5.9028   6.6389  12.9352  13.0128

          k = 0.9000 0.9000 0.1400 (   457 PWs)   bands (ev):

    -3.1426  -1.2483   2.2203   2.6994   5.9148   6.6820  12.7697  12.8709

          k = 0.9000 0.9000 0.1600 (   457 PWs)   bands (ev):

    -3.2640  -1.1040   2.2490   2.7210   5.9286   6.7309  12.6021  12.7251

          k = 0.9000 0.9000 0.1800 (   459 PWs)   bands (ev):

    -3.3836  -0.9589   2.2815   2.7455   5.9448   6.7852  12.4332  12.5770

          k = 0.9000 0.9000 0.2000 (   461 PWs)   bands (ev):

    -3.5008  -0.8132   2.3179   2.7727   5.9635   6.8456  12.2634  12.4261

          k = 0.9000 0.9000 0.2200 (   461 PWs)   bands (ev):

    -3.6156  -0.6670   2.3582   2.8028   5.9848   6.9116  12.0937  12.2760

          k = 0.9000 0.9000 0.2400 (   462 PWs)   bands (ev):

    -3.7283  -0.5203   2.4026   2.8356   6.0089   6.9827  11.9247  12.1253

          k = 0.9000 0.9000 0.2600 (   461 PWs)   bands (ev):

    -3.8384  -0.3732   2.4508   2.8713   6.0356   7.0592  11.7563  11.9752

          k = 0.9000 0.9000 0.2800 (   463 PWs)   bands (ev):

    -3.9463  -0.2262   2.5026   2.9097   6.0650   7.1405  11.5873  11.8244

          k = 0.9000 0.9000 0.3000 (   463 PWs)   bands (ev):

    -4.0515  -0.0792   2.5586   2.9509   6.0970   7.2267  11.4192  11.6751

          k = 0.9000 0.9000 0.3200 (   461 PWs)   bands (ev):

    -4.1542   0.0680   2.6184   2.9949   6.1319   7.3181  11.2527  11.5265

          k = 0.9000 0.9000 0.3400 (   459 PWs)   bands (ev):

    -4.2542   0.2149   2.6822   3.0415   6.1697   7.4135  11.0865  11.3799

          k = 0.9000 0.9000 0.3600 (   459 PWs)   bands (ev):

    -4.3517   0.3612   2.7497   3.0908   6.2099   7.5123  10.9216  11.2324

          k = 0.9000 0.9000 0.3800 (   457 PWs)   bands (ev):

    -4.4465   0.5074   2.8212   3.1426   6.2528   7.6152  10.7583  11.0859

          k = 0.9000 0.9000 0.4000 (   457 PWs)   bands (ev):

    -4.5386   0.6527   2.8964   3.1970   6.2982   7.7203  10.5970  10.9399

          k = 0.9000 0.9000 0.4200 (   458 PWs)   bands (ev):

    -4.6281   0.7975   2.9752   3.2539   6.3465   7.8272  10.4386  10.7943

          k = 0.9000 0.9000 0.4400 (   458 PWs)   bands (ev):

    -4.7147   0.9415   3.0578   3.3133   6.3968   7.9356  10.2831  10.6498

          k = 0.9000 0.9000 0.4600 (   463 PWs)   bands (ev):

    -4.7986   1.0848   3.1439   3.3747   6.4494   8.0424  10.1315  10.5055

          k = 0.9000 0.9000 0.4800 (   465 PWs)   bands (ev):

    -4.8799   1.2271   3.2335   3.4385   6.5042   8.1479   9.9862  10.3625

          k = 0.9000 0.9000 0.5000 (   466 PWs)   bands (ev):

    -4.9581   1.3686   3.3263   3.5048   6.5610   8.2477   9.8495  10.2204

          k = 0.9000 0.9000 0.5200 (   468 PWs)   bands (ev):

    -5.0336   1.5093   3.4223   3.5733   6.6198   8.3371   9.7248  10.0790

          k = 0.9000 0.9000 0.5400 (   466 PWs)   bands (ev):

    -5.1059   1.6492   3.5214   3.6440   6.6803   8.4110   9.6178   9.9395

          k = 0.9000 0.9000 0.5600 (   467 PWs)   bands (ev):

    -5.1754   1.7882   3.6231   3.7167   6.7423   8.4589   9.5358   9.8000

          k = 0.9000 0.9000 0.5800 (   469 PWs)   bands (ev):

    -5.2422   1.9263   3.7267   3.7910   6.8054   8.4730   9.4859   9.6615

          k = 0.9000 0.9000 0.6000 (   473 PWs)   bands (ev):

    -5.3058   2.0635   3.8326   3.8671   6.8695   8.4469   9.4699   9.5238

          k = 0.9000 0.9000 0.6200 (   470 PWs)   bands (ev):

    -5.3662   2.2001   3.9404   3.9450   6.9348   8.3878   9.3880   9.4805

          k = 0.9000 0.9000 0.6400 (   472 PWs)   bands (ev):

    -5.4240   2.3358   4.0240   4.0489   6.9995   8.3033   9.2533   9.5033

          k = 0.9000 0.9000 0.6600 (   472 PWs)   bands (ev):

    -5.4785   2.4709   4.1045   4.1580   7.0636   8.2035   9.1203   9.5239

          k = 0.9000 0.9000 0.6800 (   474 PWs)   bands (ev):

    -5.5303   2.6052   4.1854   4.2669   7.1261   8.0963   8.9892   9.5296

          k = 0.9000 0.9000 0.7000 (   474 PWs)   bands (ev):

    -5.5787   2.7390   4.2676   4.3746   7.1856   7.9883   8.8602   9.5119

          k = 0.9000 0.9000 0.7200 (   474 PWs)   bands (ev):

    -5.6240   2.8720   4.3502   4.4801   7.2397   7.8850   8.7336   9.4675

          k = 0.9000 0.9000 0.7400 (   472 PWs)   bands (ev):

    -5.6661   3.0045   4.4329   4.5830   7.2841   7.7942   8.6099   9.3982

          k = 0.9000 0.9000 0.7600 (   474 PWs)   bands (ev):

    -5.7056   3.1360   4.5150   4.6795   7.3109   7.7239   8.4896   9.3063

          k = 0.9000 0.9000 0.7800 (   474 PWs)   bands (ev):

    -5.7417   3.2667   4.5963   4.7691   7.3114   7.6860   8.3731   9.1980

          k = 0.9000 0.9000 0.8000 (   474 PWs)   bands (ev):

    -5.7747   3.3964   4.6761   4.8493   7.2853   7.6827   8.2611   9.0783

          k = 0.9000 0.9000 0.8200 (   476 PWs)   bands (ev):

    -5.8048   3.5247   4.7529   4.9172   7.2462   7.7022   8.1543   8.9515

          k = 0.9000 0.9000 0.8400 (   474 PWs)   bands (ev):

    -5.8314   3.6518   4.8276   4.9706   7.2091   7.7320   8.0550   8.8217

          k = 0.9000 0.9000 0.8600 (   475 PWs)   bands (ev):

    -5.8551   3.7765   4.8977   5.0058   7.1837   7.7618   7.9629   8.6923

          k = 0.9000 0.9000 0.8800 (   475 PWs)   bands (ev):

    -5.8758   3.8982   4.9621   5.0225   7.1754   7.7869   7.8778   8.5676

          k = 0.9000 0.9000 0.9000 (   471 PWs)   bands (ev):

    -5.8929   4.0155   5.0208   5.0208   7.1863   7.8023   7.8023   8.4523

          k = 0.9000 0.9000 0.9200 (   473 PWs)   bands (ev):

    -5.9072   4.1266   5.0011   5.0710   7.2158   7.7374   7.8015   8.3529

          k = 0.9000 0.9000 0.9400 (   473 PWs)   bands (ev):

    -5.9183   4.2281   4.9682   5.1127   7.2610   7.6862   7.7805   8.2765

          k = 0.9000 0.9000 0.9600 (   475 PWs)   bands (ev):

    -5.9265   4.3141   4.9284   5.1432   7.3158   7.6478   7.7378   8.2269

          k = 0.9000 0.9000 0.9800 (   477 PWs)   bands (ev):

    -5.9314   4.3758   4.8943   5.1621   7.3675   7.6242   7.6910   8.2009

          k = 0.9000 0.9000 1.0000 (   473 PWs)   bands (ev):

    -5.9326   4.3992   4.8810   5.1685   7.3913   7.6163   7.6685   8.1932

     highest occupied, lowest unoccupied level (ev):     5.1685    5.8734

!    total energy              =     -15.27458081 Ry
     estimated scf accuracy    <       0.00000015 Ry

     The total energy is the sum of the following terms:
     one-electron contribution =       4.17143450 Ry
     hartree contribution      =       1.41358002 Ry
     xc contribution           =      -4.74954510 Ry
     ewald contribution        =     -16.11005023 Ry

     convergence has been achieved in   5 iterations

     Writing output data file tmp/silicon.save/

     init_run     :      0.11s CPU      0.11s WALL (       1 calls)
     electrons    :      1.41s CPU      1.41s WALL (       1 calls)

     Called by init_run:
     wfcinit      :      0.09s CPU      0.09s WALL (       1 calls)
     potinit      :      0.00s CPU      0.00s WALL (       1 calls)
     hinit0       :      0.01s CPU      0.01s WALL (       1 calls)

     Called by electrons:
     c_bands      :      1.21s CPU      1.22s WALL (       5 calls)
     sum_band     :      0.19s CPU      0.19s WALL (       5 calls)
     v_of_rho     :      0.00s CPU      0.00s WALL (       6 calls)
     mix_rho      :      0.00s CPU      0.00s WALL (       5 calls)

     Called by c_bands:
     init_us_2    :      0.02s CPU      0.02s WALL (     561 calls)
     cegterg      :      1.19s CPU      1.20s WALL (     255 calls)

     Called by *egterg:
     cdiaghg      :      0.04s CPU      0.04s WALL (     945 calls)
     h_psi        :      1.02s CPU      1.02s WALL (     996 calls)
     g_psi        :      0.01s CPU      0.01s WALL (     690 calls)

     Called by h_psi:
     h_psi:calbec :      0.03s CPU      0.03s WALL (     996 calls)
     vloc_psi     :      0.95s CPU      0.96s WALL (     996 calls)
     add_vuspsi   :      0.03s CPU      0.03s WALL (     996 calls)

     General routines
     calbec       :      0.03s CPU      0.03s WALL (     996 calls)
     fft          :      0.01s CPU      0.01s WALL (      17 calls)
     ffts         :      0.00s CPU      0.00s WALL (       5 calls)
     fftw         :      0.95s CPU      0.95s WALL (   13728 calls)

     Parallel routines

     PWSCF        :      1.54s CPU      1.55s WALL


   This run was terminated on:  10:20: 7  24Mar2023            

=------------------------------------------------------------------------------=
   JOB DONE.
=------------------------------------------------------------------------------=
