
     Program PWSCF v.6.7MaX starts on 22Mar2023 at 17: 6:48 

     This program is part of the open-source Quantum ESPRESSO suite
     for quantum simulation of materials; please cite
         "P. Giannozzi et al., J. Phys.:Condens. Matter 21 395502 (2009);
         "P. Giannozzi et al., J. Phys.:Condens. Matter 29 465901 (2017);
          URL http://www.quantum-espresso.org", 
     in publications or presentations arising from this work. More details at
     http://www.quantum-espresso.org/quote

     Parallel version (MPI), running on     1 processors

     MPI processes distributed on     1 nodes
     Reading input from si.bandspy.in

     Current dimensions of program PWSCF are:
     Max number of different atomic species (ntypx) = 10
     Max number of k-points (npk) =  40000
     Max angular momentum in pseudopotentials (lmaxx) =  3

     Subspace diagonalization in iterative solution of the eigenvalue problem:
     a serial algorithm will be used


     G-vector sticks info
     --------------------
     sticks:   dense  smooth     PW     G-vecs:    dense   smooth      PW
     Sum         637     637    199                10489    10489    1837



     bravais-lattice index     =            2
     lattice parameter (alat)  =      10.7000  a.u.
     unit-cell volume          =     306.2607 (a.u.)^3
     number of atoms/cell      =            2
     number of atomic types    =            1
     number of electrons       =         8.00
     number of Kohn-Sham states=            8
     kinetic-energy cutoff     =      40.0000  Ry
     charge density cutoff     =     160.0000  Ry
     scf convergence threshold =      1.0E-06
     mixing beta               =       0.6000
     number of iterations used =            8  plain     mixing
     Exchange-correlation=  SLA  PZ   NOGX NOGC
                           (   1   1   0   0   0   0   0)

     celldm(1)=  10.700000  celldm(2)=   0.000000  celldm(3)=   0.000000
     celldm(4)=   0.000000  celldm(5)=   0.000000  celldm(6)=   0.000000

     crystal axes: (cart. coord. in units of alat)
               a(1) = (  -0.500000   0.000000   0.500000 )  
               a(2) = (   0.000000   0.500000   0.500000 )  
               a(3) = (  -0.500000   0.500000   0.000000 )  

     reciprocal axes: (cart. coord. in units 2 pi/alat)
               b(1) = ( -1.000000 -1.000000  1.000000 )  
               b(2) = (  1.000000  1.000000  1.000000 )  
               b(3) = ( -1.000000  1.000000 -1.000000 )  


     PseudoPot. # 1 for Si read from file:
     pseudo/Si.pz-vbc.UPF
     MD5 check sum: 6dfa03ddd5817404712e03e4d12deb78
     Pseudo is Norm-conserving, Zval =  4.0
     Generated by new atomic code, or converted to UPF format
     Using radial grid of  431 points,  2 beta functions with: 
                l(1) =   0
                l(2) =   1

     atomic species   valence    mass     pseudopotential
        Si             4.00    28.08600     Si( 1.00)

     48 Sym. Ops., with inversion, found (24 have fractional translation)



   Cartesian axes

     site n.     atom                  positions (alat units)
         1           Si  tau(   1) = (   0.0000000   0.0000000   0.0000000  )
         2           Si  tau(   2) = (   0.2500000   0.2500000   0.2500000  )

     number of k points=    51
                       cart. coord. in units 2pi/alat
        k(    1) = (   0.1000000   0.8000000   0.0000000), wk =   0.0000000
        k(    2) = (   0.1000000   0.8000000   0.0200000), wk =   0.0015686
        k(    3) = (   0.1000000   0.8000000   0.0400000), wk =   0.0031373
        k(    4) = (   0.1000000   0.8000000   0.0600000), wk =   0.0047059
        k(    5) = (   0.1000000   0.8000000   0.0800000), wk =   0.0062745
        k(    6) = (   0.1000000   0.8000000   0.1000000), wk =   0.0078431
        k(    7) = (   0.1000000   0.8000000   0.1200000), wk =   0.0094118
        k(    8) = (   0.1000000   0.8000000   0.1400000), wk =   0.0109804
        k(    9) = (   0.1000000   0.8000000   0.1600000), wk =   0.0125490
        k(   10) = (   0.1000000   0.8000000   0.1800000), wk =   0.0141176
        k(   11) = (   0.1000000   0.8000000   0.2000000), wk =   0.0156863
        k(   12) = (   0.1000000   0.8000000   0.2200000), wk =   0.0172549
        k(   13) = (   0.1000000   0.8000000   0.2400000), wk =   0.0188235
        k(   14) = (   0.1000000   0.8000000   0.2600000), wk =   0.0203922
        k(   15) = (   0.1000000   0.8000000   0.2800000), wk =   0.0219608
        k(   16) = (   0.1000000   0.8000000   0.3000000), wk =   0.0235294
        k(   17) = (   0.1000000   0.8000000   0.3200000), wk =   0.0250980
        k(   18) = (   0.1000000   0.8000000   0.3400000), wk =   0.0266667
        k(   19) = (   0.1000000   0.8000000   0.3600000), wk =   0.0282353
        k(   20) = (   0.1000000   0.8000000   0.3800000), wk =   0.0298039
        k(   21) = (   0.1000000   0.8000000   0.4000000), wk =   0.0313725
        k(   22) = (   0.1000000   0.8000000   0.4200000), wk =   0.0329412
        k(   23) = (   0.1000000   0.8000000   0.4400000), wk =   0.0345098
        k(   24) = (   0.1000000   0.8000000   0.4600000), wk =   0.0360784
        k(   25) = (   0.1000000   0.8000000   0.4800000), wk =   0.0376471
        k(   26) = (   0.1000000   0.8000000   0.5000000), wk =   0.0392157
        k(   27) = (   0.1000000   0.8000000   0.5200000), wk =   0.0407843
        k(   28) = (   0.1000000   0.8000000   0.5400000), wk =   0.0423529
        k(   29) = (   0.1000000   0.8000000   0.5600000), wk =   0.0439216
        k(   30) = (   0.1000000   0.8000000   0.5800000), wk =   0.0454902
        k(   31) = (   0.1000000   0.8000000   0.6000000), wk =   0.0470588
        k(   32) = (   0.1000000   0.8000000   0.6200000), wk =   0.0486275
        k(   33) = (   0.1000000   0.8000000   0.6400000), wk =   0.0501961
        k(   34) = (   0.1000000   0.8000000   0.6600000), wk =   0.0517647
        k(   35) = (   0.1000000   0.8000000   0.6800000), wk =   0.0533333
        k(   36) = (   0.1000000   0.8000000   0.7000000), wk =   0.0549020
        k(   37) = (   0.1000000   0.8000000   0.7200000), wk =   0.0564706
        k(   38) = (   0.1000000   0.8000000   0.7400000), wk =   0.0580392
        k(   39) = (   0.1000000   0.8000000   0.7600000), wk =   0.0596078
        k(   40) = (   0.1000000   0.8000000   0.7800000), wk =   0.0611765
        k(   41) = (   0.1000000   0.8000000   0.8000000), wk =   0.0627451
        k(   42) = (   0.1000000   0.8000000   0.8200000), wk =   0.0643137
        k(   43) = (   0.1000000   0.8000000   0.8400000), wk =   0.0658824
        k(   44) = (   0.1000000   0.8000000   0.8600000), wk =   0.0674510
        k(   45) = (   0.1000000   0.8000000   0.8800000), wk =   0.0690196
        k(   46) = (   0.1000000   0.8000000   0.9000000), wk =   0.0705882
        k(   47) = (   0.1000000   0.8000000   0.9200000), wk =   0.0721569
        k(   48) = (   0.1000000   0.8000000   0.9400000), wk =   0.0737255
        k(   49) = (   0.1000000   0.8000000   0.9600000), wk =   0.0752941
        k(   50) = (   0.1000000   0.8000000   0.9800000), wk =   0.0768627
        k(   51) = (   0.1000000   0.8000000   1.0000000), wk =   0.0784314

     Dense  grid:    10489 G-vectors     FFT dimensions: (  32,  32,  32)

     Estimated max dynamical RAM per process >      15.81 MB

     Initial potential from superposition of free atoms

     starting charge    7.99901, renormalised to    8.00000
     Starting wfcs are    8 randomized atomic wfcs

     total cpu time spent up to now is        0.2 secs

     Self-consistent Calculation

     iteration #  1     ecut=    40.00 Ry     beta= 0.60
     Davidson diagonalization with overlap
     ethr =  1.00E-02,  avg # of iterations =  3.8

     Threshold (ethr) on eigenvalues was too large:
     Diagonalizing with lowered threshold

     Davidson diagonalization with overlap
     ethr =  3.45E-04,  avg # of iterations =  3.1

     total cpu time spent up to now is        1.4 secs

     total energy              =     -16.07570655 Ry
     estimated scf accuracy    <       0.03029123 Ry

     iteration #  2     ecut=    40.00 Ry     beta= 0.60
     Davidson diagonalization with overlap
     ethr =  3.79E-04,  avg # of iterations =  1.0

     total cpu time spent up to now is        1.8 secs

     total energy              =     -16.07610155 Ry
     estimated scf accuracy    <       0.00319244 Ry

     iteration #  3     ecut=    40.00 Ry     beta= 0.60
