
     Program PWSCF v.6.7MaX starts on 22Mar2023 at 13:13:10 

     This program is part of the open-source Quantum ESPRESSO suite
     for quantum simulation of materials; please cite
         "P. Giannozzi et al., J. Phys.:Condens. Matter 21 395502 (2009);
         "P. Giannozzi et al., J. Phys.:Condens. Matter 29 465901 (2017);
          URL http://www.quantum-espresso.org", 
     in publications or presentations arising from this work. More details at
     http://www.quantum-espresso.org/quote

     Parallel version (MPI), running on     1 processors

     MPI processes distributed on     1 nodes
     Reading input from si.bandspy.in

     Current dimensions of program PWSCF are:
     Max number of different atomic species (ntypx) = 10
     Max number of k-points (npk) =  40000
     Max angular momentum in pseudopotentials (lmaxx) =  3

     Atomic positions and unit cell read from directory:
     tmp/silicon.save/


     Subspace diagonalization in iterative solution of the eigenvalue problem:
     a serial algorithm will be used


     G-vector sticks info
     --------------------
     sticks:   dense  smooth     PW     G-vecs:    dense   smooth      PW
     Sum         283     283    109                 3143     3143     725



     bravais-lattice index     =            2
     lattice parameter (alat)  =      10.2000  a.u.
     unit-cell volume          =     265.3020 (a.u.)^3
     number of atoms/cell      =            2
     number of atomic types    =            1
     number of electrons       =         8.00
     number of Kohn-Sham states=            8
     kinetic-energy cutoff     =      20.0000  Ry
     charge density cutoff     =      80.0000  Ry
     Exchange-correlation=  SLA  PZ   NOGX NOGC
                           (   1   1   0   0   0   0   0)

     celldm(1)=  10.700000  celldm(2)=   0.000000  celldm(3)=   0.000000
     celldm(4)=   0.000000  celldm(5)=   0.000000  celldm(6)=   0.000000

     crystal axes: (cart. coord. in units of alat)
               a(1) = (  -0.500000   0.000000   0.500000 )  
               a(2) = (   0.000000   0.500000   0.500000 )  
               a(3) = (  -0.500000   0.500000   0.000000 )  

     reciprocal axes: (cart. coord. in units 2 pi/alat)
               b(1) = ( -1.000000 -1.000000  1.000000 )  
               b(2) = (  1.000000  1.000000  1.000000 )  
               b(3) = ( -1.000000  1.000000 -1.000000 )  


     PseudoPot. # 1 for Si read from file:
     pseudo/Si.pz-vbc.UPF
     MD5 check sum: 6dfa03ddd5817404712e03e4d12deb78
     Pseudo is Norm-conserving, Zval =  4.0
     Generated by new atomic code, or converted to UPF format
     Using radial grid of  431 points,  2 beta functions with: 
                l(1) =   0
                l(2) =   1

     atomic species   valence    mass     pseudopotential
        Si             4.00    28.08600     Si( 1.00)

     48 Sym. Ops., with inversion, found (24 have fractional translation)



   Cartesian axes

     site n.     atom                  positions (alat units)
         1           Si  tau(   1) = (   0.0000000   0.0000000   0.0000000  )
         2           Si  tau(   2) = (   0.2500000   0.2500000   0.2500000  )

     number of k points=    51
                       cart. coord. in units 2pi/alat
        k(    1) = (   0.9000000   0.9000000   0.0000000), wk =   0.0000000
        k(    2) = (   0.9000000   0.9000000   0.0200000), wk =   0.0015686
        k(    3) = (   0.9000000   0.9000000   0.0400000), wk =   0.0031373
        k(    4) = (   0.9000000   0.9000000   0.0600000), wk =   0.0047059
        k(    5) = (   0.9000000   0.9000000   0.0800000), wk =   0.0062745
        k(    6) = (   0.9000000   0.9000000   0.1000000), wk =   0.0078431
        k(    7) = (   0.9000000   0.9000000   0.1200000), wk =   0.0094118
        k(    8) = (   0.9000000   0.9000000   0.1400000), wk =   0.0109804
        k(    9) = (   0.9000000   0.9000000   0.1600000), wk =   0.0125490
        k(   10) = (   0.9000000   0.9000000   0.1800000), wk =   0.0141176
        k(   11) = (   0.9000000   0.9000000   0.2000000), wk =   0.0156863
        k(   12) = (   0.9000000   0.9000000   0.2200000), wk =   0.0172549
        k(   13) = (   0.9000000   0.9000000   0.2400000), wk =   0.0188235
        k(   14) = (   0.9000000   0.9000000   0.2600000), wk =   0.0203922
        k(   15) = (   0.9000000   0.9000000   0.2800000), wk =   0.0219608
        k(   16) = (   0.9000000   0.9000000   0.3000000), wk =   0.0235294
        k(   17) = (   0.9000000   0.9000000   0.3200000), wk =   0.0250980
        k(   18) = (   0.9000000   0.9000000   0.3400000), wk =   0.0266667
        k(   19) = (   0.9000000   0.9000000   0.3600000), wk =   0.0282353
        k(   20) = (   0.9000000   0.9000000   0.3800000), wk =   0.0298039
        k(   21) = (   0.9000000   0.9000000   0.4000000), wk =   0.0313725
        k(   22) = (   0.9000000   0.9000000   0.4200000), wk =   0.0329412
        k(   23) = (   0.9000000   0.9000000   0.4400000), wk =   0.0345098
        k(   24) = (   0.9000000   0.9000000   0.4600000), wk =   0.0360784
        k(   25) = (   0.9000000   0.9000000   0.4800000), wk =   0.0376471
        k(   26) = (   0.9000000   0.9000000   0.5000000), wk =   0.0392157
        k(   27) = (   0.9000000   0.9000000   0.5200000), wk =   0.0407843
        k(   28) = (   0.9000000   0.9000000   0.5400000), wk =   0.0423529
        k(   29) = (   0.9000000   0.9000000   0.5600000), wk =   0.0439216
        k(   30) = (   0.9000000   0.9000000   0.5800000), wk =   0.0454902
        k(   31) = (   0.9000000   0.9000000   0.6000000), wk =   0.0470588
        k(   32) = (   0.9000000   0.9000000   0.6200000), wk =   0.0486275
        k(   33) = (   0.9000000   0.9000000   0.6400000), wk =   0.0501961
        k(   34) = (   0.9000000   0.9000000   0.6600000), wk =   0.0517647
        k(   35) = (   0.9000000   0.9000000   0.6800000), wk =   0.0533333
        k(   36) = (   0.9000000   0.9000000   0.7000000), wk =   0.0549020
        k(   37) = (   0.9000000   0.9000000   0.7200000), wk =   0.0564706
        k(   38) = (   0.9000000   0.9000000   0.7400000), wk =   0.0580392
        k(   39) = (   0.9000000   0.9000000   0.7600000), wk =   0.0596078
        k(   40) = (   0.9000000   0.9000000   0.7800000), wk =   0.0611765
        k(   41) = (   0.9000000   0.9000000   0.8000000), wk =   0.0627451
        k(   42) = (   0.9000000   0.9000000   0.8200000), wk =   0.0643137
        k(   43) = (   0.9000000   0.9000000   0.8400000), wk =   0.0658824
        k(   44) = (   0.9000000   0.9000000   0.8600000), wk =   0.0674510
        k(   45) = (   0.9000000   0.9000000   0.8800000), wk =   0.0690196
        k(   46) = (   0.9000000   0.9000000   0.9000000), wk =   0.0705882
        k(   47) = (   0.9000000   0.9000000   0.9200000), wk =   0.0721569
        k(   48) = (   0.9000000   0.9000000   0.9400000), wk =   0.0737255
        k(   49) = (   0.9000000   0.9000000   0.9600000), wk =   0.0752941
        k(   50) = (   0.9000000   0.9000000   0.9800000), wk =   0.0768627
        k(   51) = (   0.9000000   0.9000000   1.0000000), wk =   0.0784314

     Dense  grid:     3143 G-vectors     FFT dimensions: (  24,  24,  24)

     Estimated max dynamical RAM per process >       1.70 MB

     The potential is recalculated from file :
     tmp/silicon.save/charge-density

     Starting wfcs are    8 randomized atomic wfcs

     Band Structure Calculation
     Davidson diagonalization with overlap

     ethr =  1.25E-08,  avg # of iterations = 16.4

     total cpu time spent up to now is        1.5 secs

     End of band structure calculation

          k = 0.9000 0.9000 0.0000 (   406 PWs)   bands (ev):

    -1.6085  -1.4763   2.8540   3.4326   6.9750   7.6896  15.6894  15.9693

          k = 0.9000 0.9000 0.0200 (   405 PWs)   bands (ev):

    -1.7079  -1.3748   2.8562   3.4343   6.9758   7.6933  15.6492  15.8894

          k = 0.9000 0.9000 0.0400 (   407 PWs)   bands (ev):

    -1.8514  -1.2264   2.8627   3.4386   6.9789   7.7040  15.5443  15.7297

          k = 0.9000 0.9000 0.0600 (   407 PWs)   bands (ev):

    -1.9973  -1.0722   2.8735   3.4467   6.9845   7.7217  15.4051  15.5494

          k = 0.9000 0.9000 0.0800 (   405 PWs)   bands (ev):

    -2.1421  -0.9153   2.8887   3.4578   6.9921   7.7470  15.2486  15.3624

          k = 0.9000 0.9000 0.1000 (   405 PWs)   bands (ev):

    -2.2853  -0.7570   2.9082   3.4722   7.0022   7.7788  15.0836  15.1725

          k = 0.9000 0.9000 0.1200 (   407 PWs)   bands (ev):

    -2.4267  -0.5975   2.9319   3.4896   7.0147   7.8165  14.9133  14.9814

          k = 0.9000 0.9000 0.1400 (   405 PWs)   bands (ev):

    -2.5656  -0.4365   2.9603   3.5103   7.0302   7.8618  14.7424  14.7936

          k = 0.9000 0.9000 0.1600 (   405 PWs)   bands (ev):

    -2.7024  -0.2752   2.9929   3.5341   7.0479   7.9137  14.5709  14.6021

          k = 0.9000 0.9000 0.1800 (   404 PWs)   bands (ev):

    -2.8367  -0.1129   3.0300   3.5610   7.0686   7.9720  14.3995  14.4120

          k = 0.9000 0.9000 0.2000 (   404 PWs)   bands (ev):

    -2.9685   0.0495   3.0715   3.5911   7.0918   8.0368  14.2211  14.2288

          k = 0.9000 0.9000 0.2200 (   405 PWs)   bands (ev):

    -3.0980   0.2121   3.1175   3.6243   7.1175   8.1078  14.0299  14.0590

          k = 0.9000 0.9000 0.2400 (   405 PWs)   bands (ev):

    -3.2247   0.3748   3.1681   3.6606   7.1464   8.1850  13.8402  13.8902

          k = 0.9000 0.9000 0.2600 (   405 PWs)   bands (ev):

    -3.3486   0.5374   3.2231   3.7000   7.1790   8.2679  13.6507  13.7225

          k = 0.9000 0.9000 0.2800 (   404 PWs)   bands (ev):

    -3.4699   0.7000   3.2826   3.7425   7.2141   8.3573  13.4621  13.5596

          k = 0.9000 0.9000 0.3000 (   404 PWs)   bands (ev):

    -3.5884   0.8617   3.3469   3.7880   7.2519   8.4525  13.2744  13.3943

          k = 0.9000 0.9000 0.3200 (   406 PWs)   bands (ev):

    -3.7039   1.0226   3.4158   3.8363   7.2926   8.5519  13.0875  13.2293

          k = 0.9000 0.9000 0.3400 (   404 PWs)   bands (ev):

    -3.8163   1.1828   3.4894   3.8877   7.3362   8.6588  12.9022  13.0663

          k = 0.9000 0.9000 0.3600 (   404 PWs)   bands (ev):

    -3.9259   1.3418   3.5677   3.9420   7.3827   8.7710  12.7171  12.9044

          k = 0.9000 0.9000 0.3800 (   405 PWs)   bands (ev):

    -4.0327   1.4997   3.6506   3.9993   7.4320   8.8878  12.5327  12.7460

          k = 0.9000 0.9000 0.4000 (   405 PWs)   bands (ev):

    -4.1363   1.6561   3.7381   4.0593   7.4840   9.0106  12.3499  12.5861

          k = 0.9000 0.9000 0.4200 (   405 PWs)   bands (ev):

    -4.2368   1.8111   3.8300   4.1221   7.5387   9.1383  12.1686  12.4272

          k = 0.9000 0.9000 0.4400 (   405 PWs)   bands (ev):

    -4.3342   1.9644   3.9264   4.1877   7.5959   9.2705  11.9889  12.2692

          k = 0.9000 0.9000 0.4600 (   405 PWs)   bands (ev):

    -4.4286   2.1161   4.0269   4.2551   7.6556   9.4067  11.8114  12.1123

          k = 0.9000 0.9000 0.4800 (   405 PWs)   bands (ev):

    -4.5196   2.2662   4.1315   4.3256   7.7167   9.5465  11.6366  11.9561

          k = 0.9000 0.9000 0.5000 (   405 PWs)   bands (ev):

    -4.6074   2.4146   4.2398   4.3989   7.7809   9.6882  11.4651  11.8007

          k = 0.9000 0.9000 0.5200 (   401 PWs)   bands (ev):

    -4.6918   2.5620   4.3519   4.4746   7.8482   9.8305  11.3019  11.6464

          k = 0.9000 0.9000 0.5400 (   401 PWs)   bands (ev):

    -4.7731   2.7071   4.4669   4.5527   7.9162   9.9695  11.1435  11.4928

          k = 0.9000 0.9000 0.5600 (   401 PWs)   bands (ev):

    -4.8511   2.8508   4.5845   4.6330   7.9858  10.0986  10.9995  11.3402

          k = 0.9000 0.9000 0.5800 (   399 PWs)   bands (ev):

    -4.9257   2.9933   4.7044   4.7154   8.0573  10.2024  10.8851  11.1887

          k = 0.9000 0.9000 0.6000 (   397 PWs)   bands (ev):

    -4.9970   3.1346   4.7997   4.8258   8.1297  10.2485  10.8313  11.0384

          k = 0.9000 0.9000 0.6200 (   395 PWs)   bands (ev):

    -5.0648   3.2745   4.8859   4.9486   8.2027  10.2105  10.8635  10.8893

          k = 0.9000 0.9000 0.6400 (   394 PWs)   bands (ev):

    -5.1294   3.4131   4.9736   5.0713   8.2760  10.1127  10.7415  10.9542

          k = 0.9000 0.9000 0.6600 (   394 PWs)   bands (ev):

    -5.1906   3.5511   5.0627   5.1934   8.3493   9.9887  10.5953  11.0666

          k = 0.9000 0.9000 0.6800 (   392 PWs)   bands (ev):

    -5.2482   3.6884   5.1530   5.3138   8.4222   9.8567  10.4518  11.1785

          k = 0.9000 0.9000 0.7000 (   390 PWs)   bands (ev):

    -5.3023   3.8250   5.2444   5.4316   8.4941   9.7248  10.3101  11.2747

          k = 0.9000 0.9000 0.7200 (   392 PWs)   bands (ev):

    -5.3534   3.9609   5.3355   5.5452   8.5640   9.5968  10.1705  11.3420

          k = 0.9000 0.9000 0.7400 (   392 PWs)   bands (ev):

    -5.4008   4.0961   5.4271   5.6532   8.6309   9.4766  10.0340  11.3715

          k = 0.9000 0.9000 0.7600 (   392 PWs)   bands (ev):

    -5.4448   4.2305   5.5186   5.7536   8.6939   9.3670   9.9010  11.3573

          k = 0.9000 0.9000 0.7800 (   392 PWs)   bands (ev):

    -5.4851   4.3643   5.6087   5.8446   8.7505   9.2717   9.7718  11.3026

          k = 0.9000 0.9000 0.8000 (   394 PWs)   bands (ev):

    -5.5223   4.4971   5.6967   5.9244   8.7974   9.1948   9.6478  11.2172

          k = 0.9000 0.9000 0.8200 (   394 PWs)   bands (ev):

    -5.5558   4.6287   5.7829   5.9904   8.8305   9.1419   9.5296  11.1115

          k = 0.9000 0.9000 0.8400 (   391 PWs)   bands (ev):

    -5.5856   4.7591   5.8656   6.0406   8.8482   9.1167   9.4180  10.9951

          k = 0.9000 0.9000 0.8600 (   392 PWs)   bands (ev):

    -5.6122   4.8872   5.9438   6.0729   8.8526   9.1146   9.3143  10.8749

          k = 0.9000 0.9000 0.8800 (   394 PWs)   bands (ev):

    -5.6352   5.0123   6.0161   6.0862   8.8557   9.1240   9.2192  10.7567

          k = 0.9000 0.9000 0.9000 (   396 PWs)   bands (ev):

    -5.6548   5.1337   6.0810   6.0810   8.8658   9.1351   9.1351  10.6462

          k = 0.9000 0.9000 0.9200 (   399 PWs)   bands (ev):

    -5.6710   5.2490   6.0590   6.1374   8.8859   9.0629   9.1408  10.5476

          k = 0.9000 0.9000 0.9400 (   397 PWs)   bands (ev):

    -5.6834   5.3566   6.0236   6.1836   8.9158   9.0056   9.1383  10.4657

          k = 0.9000 0.9000 0.9600 (   401 PWs)   bands (ev):

    -5.6926   5.4503   5.9794   6.2173   8.9508   8.9625   9.1264  10.4036

          k = 0.9000 0.9000 0.9800 (   401 PWs)   bands (ev):

    -5.6979   5.5206   5.9388   6.2384   8.9363   8.9844   9.1086  10.3650

          k = 0.9000 0.9000 1.0000 (   399 PWs)   bands (ev):

    -5.6996   5.5482   5.9216   6.2456   8.9280   9.0009   9.0981  10.3521

     Writing output data file tmp/silicon.save/

     init_run     :      0.02s CPU      0.02s WALL (       1 calls)
     electrons    :      1.32s CPU      1.33s WALL (       1 calls)

     Called by init_run:
     wfcinit      :      0.00s CPU      0.00s WALL (       1 calls)
     potinit      :      0.00s CPU      0.00s WALL (       1 calls)
     hinit0       :      0.01s CPU      0.01s WALL (       1 calls)

     Called by electrons:
     c_bands      :      1.32s CPU      1.33s WALL (       1 calls)
     v_of_rho     :      0.00s CPU      0.00s WALL (       1 calls)

     Called by c_bands:
     init_us_2    :      0.00s CPU      0.00s WALL (      51 calls)
     cegterg      :      1.23s CPU      1.23s WALL (      56 calls)

     Called by *egterg:
     cdiaghg      :      0.06s CPU      0.06s WALL (     888 calls)
     h_psi        :      1.00s CPU      1.00s WALL (     944 calls)
     g_psi        :      0.01s CPU      0.01s WALL (     837 calls)

     Called by h_psi:
     h_psi:calbec :      0.03s CPU      0.03s WALL (     944 calls)
     vloc_psi     :      0.94s CPU      0.94s WALL (     944 calls)
     add_vuspsi   :      0.03s CPU      0.03s WALL (     944 calls)

     General routines
     calbec       :      0.02s CPU      0.03s WALL (     944 calls)
     fft          :      0.01s CPU      0.01s WALL (       3 calls)
     fftw         :      0.80s CPU      0.80s WALL (   11152 calls)
     davcio       :      0.00s CPU      0.00s WALL (     102 calls)

     Parallel routines

     PWSCF        :      1.45s CPU      1.46s WALL


   This run was terminated on:  13:13:11  22Mar2023            

=------------------------------------------------------------------------------=
   JOB DONE.
=------------------------------------------------------------------------------=
