
     Program BANDS v.6.7MaX starts on 24Mar2023 at 10:20: 6 

     This program is part of the open-source Quantum ESPRESSO suite
     for quantum simulation of materials; please cite
         "P. Giannozzi et al., J. Phys.:Condens. Matter 21 395502 (2009);
         "P. Giannozzi et al., J. Phys.:Condens. Matter 29 465901 (2017);
          URL http://www.quantum-espresso.org", 
     in publications or presentations arising from this work. More details at
     http://www.quantum-espresso.org/quote

     Parallel version (MPI), running on     1 processors

     MPI processes distributed on     1 nodes

     Reading xml data from directory:

     tmp/silicon.save/

     IMPORTANT: XC functional enforced from input :
     Exchange-correlation= PZ
                           (   1   1   0   0   0   0   0)
     Any further DFT definition will be discarded
     Please, verify this is what you really want


     G-vector sticks info
     --------------------
     sticks:   dense  smooth     PW     G-vecs:    dense   smooth      PW
     Sum         313     313    121                 3719     3719     869

     Reading collected, re-writing distributed wavefunctions
     high-symmetry point:  0.9000 0.8000 0.0000   x coordinate   0.0000
     high-symmetry point:  0.9000 0.8000 1.0000   x coordinate   1.0000

     Plottable bands (eV) written to file si_bands.dat.gnu
     Bands written to file si_bands.dat

 **************************************************************************

                    xk=(   0.90000,   0.80000,   0.00000  )

     point group C_s (m)    
     there are  2 classes
     the character table:

       E     s    
A'     1.00  1.00
A''    1.00 -1.00

     the symmetry operations in each class and the name of the first element:

     E        1
                                                                 
     s        2
                                                                 

     Band symmetry, C_s (m)     point group:

     e(  1 -  1) =     -2.42122  eV     1   --> A'             
     e(  2 -  2) =     -2.14557  eV     1   --> A''            
     e(  3 -  3) =      1.73584  eV     1   --> A'             
     e(  4 -  4) =      2.51526  eV     1   --> A''            
     e(  5 -  5) =      6.12541  eV     1   --> A''            
     e(  6 -  6) =      7.20397  eV     1   --> A'             
     e(  7 -  7) =     12.68924  eV     1   --> A'             
     e(  8 -  8) =     12.85828  eV     1   --> A''            

 **************************************************************************

 **************************************************************************

                    xk=(   0.90000,   0.80000,   0.02000  )

     point group C_1 (1)    
     there are  1 classes
     the character table:

       E    
A      1.00

     the symmetry operations in each class and the name of the first element:

     E        1
                                                                 

     Band symmetry, C_1 (1)     point group:

     e(  1 -  1) =     -2.47097  eV     1   --> A              
     e(  2 -  2) =     -2.09461  eV     1   --> A              
     e(  3 -  3) =      1.73810  eV     1   --> A              
     e(  4 -  4) =      2.51709  eV     1   --> A              
     e(  5 -  5) =      6.12651  eV     1   --> A              
     e(  6 -  6) =      7.20643  eV     1   --> A              
     e(  7 -  7) =     12.60908  eV     1   --> A              
     e(  8 -  8) =     12.92417  eV     1   --> A              

 **************************************************************************

 **************************************************************************

                    xk=(   0.90000,   0.80000,   0.04000  )

     Band symmetry, C_1 (1)     point group:

     e(  1 -  1) =     -2.57211  eV     1   --> A              
     e(  2 -  2) =     -1.99016  eV     1   --> A              
     e(  3 -  3) =      1.74503  eV     1   --> A              
     e(  4 -  4) =      2.52216  eV     1   --> A              
     e(  5 -  5) =      6.13110  eV     1   --> A              
     e(  6 -  6) =      7.21475  eV     1   --> A              
     e(  7 -  7) =     12.47149  eV     1   --> A              
     e(  8 -  8) =     13.01180  eV     1   --> A              

 **************************************************************************

 **************************************************************************

                    xk=(   0.90000,   0.80000,   0.06000  )

     Band symmetry, C_1 (1)     point group:

     e(  1 -  1) =     -2.68675  eV     1   --> A              
     e(  2 -  2) =     -1.87063  eV     1   --> A              
     e(  3 -  3) =      1.75638  eV     1   --> A              
     e(  4 -  4) =      2.53058  eV     1   --> A              
     e(  5 -  5) =      6.13825  eV     1   --> A              
     e(  6 -  6) =      7.22720  eV     1   --> A              
     e(  7 -  7) =     12.32204  eV     1   --> A              
     e(  8 -  8) =     13.06018  eV     1   --> A              

 **************************************************************************

 **************************************************************************

                    xk=(   0.90000,   0.80000,   0.08000  )

     Band symmetry, C_1 (1)     point group:

     e(  1 -  1) =     -2.80482  eV     1   --> A              
     e(  2 -  2) =     -1.74546  eV     1   --> A              
     e(  3 -  3) =      1.77227  eV     1   --> A              
     e(  4 -  4) =      2.54236  eV     1   --> A              
     e(  5 -  5) =      6.14825  eV     1   --> A              
     e(  6 -  6) =      7.24515  eV     1   --> A              
     e(  7 -  7) =     12.16736  eV     1   --> A              
     e(  8 -  8) =     13.04898  eV     1   --> A              

 **************************************************************************

 **************************************************************************

                    xk=(   0.90000,   0.80000,   0.10000  )

     Band symmetry, C_1 (1)     point group:

     e(  1 -  1) =     -2.92358  eV     1   --> A              
     e(  2 -  2) =     -1.61759  eV     1   --> A              
     e(  3 -  3) =      1.79280  eV     1   --> A              
     e(  4 -  4) =      2.55759  eV     1   --> A              
     e(  5 -  5) =      6.16139  eV     1   --> A              
     e(  6 -  6) =      7.26849  eV     1   --> A              
     e(  7 -  7) =     12.01158  eV     1   --> A              
     e(  8 -  8) =     12.98028  eV     1   --> A              

 **************************************************************************

 **************************************************************************

                    xk=(   0.90000,   0.80000,   0.12000  )

     Band symmetry, C_1 (1)     point group:

     e(  1 -  1) =     -3.04191  eV     1   --> A              
     e(  2 -  2) =     -1.48824  eV     1   --> A              
     e(  3 -  3) =      1.81778  eV     1   --> A              
     e(  4 -  4) =      2.57623  eV     1   --> A              
     e(  5 -  5) =      6.17707  eV     1   --> A              
     e(  6 -  6) =      7.29671  eV     1   --> A              
     e(  7 -  7) =     11.85507  eV     1   --> A              
     e(  8 -  8) =     12.87217  eV     1   --> A              

 **************************************************************************

 **************************************************************************

                    xk=(   0.90000,   0.80000,   0.14000  )

     Band symmetry, C_1 (1)     point group:

     e(  1 -  1) =     -3.15921  eV     1   --> A              
     e(  2 -  2) =     -1.35800  eV     1   --> A              
     e(  3 -  3) =      1.84725  eV     1   --> A              
     e(  4 -  4) =      2.59831  eV     1   --> A              
     e(  5 -  5) =      6.19554  eV     1   --> A              
     e(  6 -  6) =      7.33005  eV     1   --> A              
     e(  7 -  7) =     11.69850  eV     1   --> A              
     e(  8 -  8) =     12.74122  eV     1   --> A              

 **************************************************************************

 **************************************************************************

                    xk=(   0.90000,   0.80000,   0.16000  )

     Band symmetry, C_1 (1)     point group:

     e(  1 -  1) =     -3.27540  eV     1   --> A              
     e(  2 -  2) =     -1.22736  eV     1   --> A              
     e(  3 -  3) =      1.88110  eV     1   --> A              
     e(  4 -  4) =      2.62375  eV     1   --> A              
     e(  5 -  5) =      6.21703  eV     1   --> A              
     e(  6 -  6) =      7.36849  eV     1   --> A              
     e(  7 -  7) =     11.54190  eV     1   --> A              
     e(  8 -  8) =     12.59750  eV     1   --> A              

 **************************************************************************

 **************************************************************************

                    xk=(   0.90000,   0.80000,   0.18000  )

     Band symmetry, C_1 (1)     point group:

     e(  1 -  1) =     -3.38980  eV     1   --> A              
     e(  2 -  2) =     -1.09619  eV     1   --> A              
     e(  3 -  3) =      1.91950  eV     1   --> A              
     e(  4 -  4) =      2.65281  eV     1   --> A              
     e(  5 -  5) =      6.24137  eV     1   --> A              
     e(  6 -  6) =      7.41208  eV     1   --> A              
     e(  7 -  7) =     11.38719  eV     1   --> A              
     e(  8 -  8) =     12.44776  eV     1   --> A              

 **************************************************************************

 **************************************************************************

                    xk=(   0.90000,   0.80000,   0.20000  )

     Band symmetry, C_1 (1)     point group:

     e(  1 -  1) =     -3.50254  eV     1   --> A              
     e(  2 -  2) =     -0.96532  eV     1   --> A              
     e(  3 -  3) =      1.96196  eV     1   --> A              
     e(  4 -  4) =      2.68537  eV     1   --> A              
     e(  5 -  5) =      6.26791  eV     1   --> A              
     e(  6 -  6) =      7.46051  eV     1   --> A              
     e(  7 -  7) =     11.23216  eV     1   --> A              
     e(  8 -  8) =     12.29169  eV     1   --> A              

 **************************************************************************

 **************************************************************************

                    xk=(   0.90000,   0.80000,   0.22000  )

     Band symmetry, C_1 (1)     point group:

     e(  1 -  1) =     -3.61326  eV     1   --> A              
     e(  2 -  2) =     -0.83463  eV     1   --> A              
     e(  3 -  3) =      2.00883  eV     1   --> A              
     e(  4 -  4) =      2.72152  eV     1   --> A              
     e(  5 -  5) =      6.29717  eV     1   --> A              
     e(  6 -  6) =      7.51401  eV     1   --> A              
     e(  7 -  7) =     11.07854  eV     1   --> A              
     e(  8 -  8) =     12.13425  eV     1   --> A              

 **************************************************************************

 **************************************************************************

                    xk=(   0.90000,   0.80000,   0.24000  )

     Band symmetry, C_1 (1)     point group:

     e(  1 -  1) =     -3.72189  eV     1   --> A              
     e(  2 -  2) =     -0.70408  eV     1   --> A              
     e(  3 -  3) =      2.05999  eV     1   --> A              
     e(  4 -  4) =      2.76129  eV     1   --> A              
     e(  5 -  5) =      6.32904  eV     1   --> A              
     e(  6 -  6) =      7.57231  eV     1   --> A              
     e(  7 -  7) =     10.92669  eV     1   --> A              
     e(  8 -  8) =     11.97569  eV     1   --> A              

 **************************************************************************

 **************************************************************************

                    xk=(   0.90000,   0.80000,   0.26000  )

     Band symmetry, C_1 (1)     point group:

     e(  1 -  1) =     -3.82870  eV     1   --> A              
     e(  2 -  2) =     -0.57427  eV     1   --> A              
     e(  3 -  3) =      2.11501  eV     1   --> A              
     e(  4 -  4) =      2.80462  eV     1   --> A              
     e(  5 -  5) =      6.36327  eV     1   --> A              
     e(  6 -  6) =      7.63540  eV     1   --> A              
     e(  7 -  7) =     10.77542  eV     1   --> A              
     e(  8 -  8) =     11.81673  eV     1   --> A              

 **************************************************************************

 **************************************************************************

                    xk=(   0.90000,   0.80000,   0.28000  )

     Band symmetry, C_1 (1)     point group:

     e(  1 -  1) =     -3.93311  eV     1   --> A              
     e(  2 -  2) =     -0.44491  eV     1   --> A              
     e(  3 -  3) =      2.17390  eV     1   --> A              
     e(  4 -  4) =      2.85191  eV     1   --> A              
     e(  5 -  5) =      6.40018  eV     1   --> A              
     e(  6 -  6) =      7.70348  eV     1   --> A              
     e(  7 -  7) =     10.62591  eV     1   --> A              
     e(  8 -  8) =     11.65839  eV     1   --> A              

 **************************************************************************

 **************************************************************************

                    xk=(   0.90000,   0.80000,   0.30000  )

     Band symmetry, C_1 (1)     point group:

     e(  1 -  1) =     -4.03543  eV     1   --> A              
     e(  2 -  2) =     -0.31627  eV     1   --> A              
     e(  3 -  3) =      2.23640  eV     1   --> A              
     e(  4 -  4) =      2.90289  eV     1   --> A              
     e(  5 -  5) =      6.43949  eV     1   --> A              
     e(  6 -  6) =      7.77591  eV     1   --> A              
     e(  7 -  7) =     10.47809  eV     1   --> A              
     e(  8 -  8) =     11.49984  eV     1   --> A              

 **************************************************************************

 **************************************************************************

                    xk=(   0.90000,   0.80000,   0.32000  )

     Band symmetry, C_1 (1)     point group:

     e(  1 -  1) =     -4.13526  eV     1   --> A              
     e(  2 -  2) =     -0.18831  eV     1   --> A              
     e(  3 -  3) =      2.30245  eV     1   --> A              
     e(  4 -  4) =      2.95790  eV     1   --> A              
     e(  5 -  5) =      6.48115  eV     1   --> A              
     e(  6 -  6) =      7.85254  eV     1   --> A              
     e(  7 -  7) =     10.33198  eV     1   --> A              
     e(  8 -  8) =     11.34295  eV     1   --> A              

 **************************************************************************

 **************************************************************************

                    xk=(   0.90000,   0.80000,   0.34000  )

     Band symmetry, C_1 (1)     point group:

     e(  1 -  1) =     -4.23275  eV     1   --> A              
     e(  2 -  2) =     -0.06110  eV     1   --> A              
     e(  3 -  3) =      2.37170  eV     1   --> A              
     e(  4 -  4) =      3.01678  eV     1   --> A              
     e(  5 -  5) =      6.52513  eV     1   --> A              
     e(  6 -  6) =      7.93257  eV     1   --> A              
     e(  7 -  7) =     10.18791  eV     1   --> A              
     e(  8 -  8) =     11.18686  eV     1   --> A              

 **************************************************************************

 **************************************************************************

                    xk=(   0.90000,   0.80000,   0.36000  )

     Band symmetry, C_1 (1)     point group:

     e(  1 -  1) =     -4.32780  eV     1   --> A              
     e(  2 -  2) =      0.06497  eV     1   --> A              
     e(  3 -  3) =      2.44391  eV     1   --> A              
     e(  4 -  4) =      3.07969  eV     1   --> A              
     e(  5 -  5) =      6.57109  eV     1   --> A              
     e(  6 -  6) =      8.01569  eV     1   --> A              
     e(  7 -  7) =     10.04602  eV     1   --> A              
     e(  8 -  8) =     11.03171  eV     1   --> A              

 **************************************************************************

 **************************************************************************

                    xk=(   0.90000,   0.80000,   0.38000  )

     Band symmetry, C_1 (1)     point group:

     e(  1 -  1) =     -4.42032  eV     1   --> A              
     e(  2 -  2) =      0.19055  eV     1   --> A              
     e(  3 -  3) =      2.51881  eV     1   --> A              
     e(  4 -  4) =      3.14668  eV     1   --> A              
     e(  5 -  5) =      6.61929  eV     1   --> A              
     e(  6 -  6) =      8.10155  eV     1   --> A              
     e(  7 -  7) =      9.90762  eV     1   --> A              
     e(  8 -  8) =     10.87854  eV     1   --> A              

 **************************************************************************

 **************************************************************************

                    xk=(   0.90000,   0.80000,   0.40000  )

     Band symmetry, C_1 (1)     point group:

     e(  1 -  1) =     -4.51029  eV     1   --> A              
     e(  2 -  2) =      0.31514  eV     1   --> A              
     e(  3 -  3) =      2.59615  eV     1   --> A              
     e(  4 -  4) =      3.21790  eV     1   --> A              
     e(  5 -  5) =      6.66938  eV     1   --> A              
     e(  6 -  6) =      8.18807  eV     1   --> A              
     e(  7 -  7) =      9.77394  eV     1   --> A              
     e(  8 -  8) =     10.72629  eV     1   --> A              

 **************************************************************************

 **************************************************************************

                    xk=(   0.90000,   0.80000,   0.42000  )

     Band symmetry, C_1 (1)     point group:

     e(  1 -  1) =     -4.59784  eV     1   --> A              
     e(  2 -  2) =      0.43865  eV     1   --> A              
     e(  3 -  3) =      2.67548  eV     1   --> A              
     e(  4 -  4) =      3.29274  eV     1   --> A              
     e(  5 -  5) =      6.72086  eV     1   --> A              
     e(  6 -  6) =      8.27247  eV     1   --> A              
     e(  7 -  7) =      9.64610  eV     1   --> A              
     e(  8 -  8) =     10.57532  eV     1   --> A              

 **************************************************************************

 **************************************************************************

                    xk=(   0.90000,   0.80000,   0.44000  )

     Band symmetry, C_1 (1)     point group:

     e(  1 -  1) =     -4.68262  eV     1   --> A              
     e(  2 -  2) =      0.56147  eV     1   --> A              
     e(  3 -  3) =      2.75669  eV     1   --> A              
     e(  4 -  4) =      3.37184  eV     1   --> A              
     e(  5 -  5) =      6.77405  eV     1   --> A              
     e(  6 -  6) =      8.35267  eV     1   --> A              
     e(  7 -  7) =      9.52860  eV     1   --> A              
     e(  8 -  8) =     10.42628  eV     1   --> A              

 **************************************************************************

 **************************************************************************

                    xk=(   0.90000,   0.80000,   0.46000  )

     Band symmetry, C_1 (1)     point group:

     e(  1 -  1) =     -4.76490  eV     1   --> A              
     e(  2 -  2) =      0.68361  eV     1   --> A              
     e(  3 -  3) =      2.83914  eV     1   --> A              
     e(  4 -  4) =      3.45482  eV     1   --> A              
     e(  5 -  5) =      6.82851  eV     1   --> A              
     e(  6 -  6) =      8.42208  eV     1   --> A              
     e(  7 -  7) =      9.42638  eV     1   --> A              
     e(  8 -  8) =     10.27893  eV     1   --> A              

 **************************************************************************

 **************************************************************************

                    xk=(   0.90000,   0.80000,   0.48000  )

     Band symmetry, C_1 (1)     point group:

     e(  1 -  1) =     -4.84461  eV     1   --> A              
     e(  2 -  2) =      0.80524  eV     1   --> A              
     e(  3 -  3) =      2.92301  eV     1   --> A              
     e(  4 -  4) =      3.54109  eV     1   --> A              
     e(  5 -  5) =      6.88429  eV     1   --> A              
     e(  6 -  6) =      8.47133  eV     1   --> A              
     e(  7 -  7) =      9.34846  eV     1   --> A              
     e(  8 -  8) =     10.13309  eV     1   --> A              

 **************************************************************************

 **************************************************************************

                    xk=(   0.90000,   0.80000,   0.50000  )

     Band symmetry, C_1 (1)     point group:

     e(  1 -  1) =     -4.92120  eV     1   --> A              
     e(  2 -  2) =      0.92632  eV     1   --> A              
     e(  3 -  3) =      3.00820  eV     1   --> A              
     e(  4 -  4) =      3.63119  eV     1   --> A              
     e(  5 -  5) =      6.94064  eV     1   --> A              
     e(  6 -  6) =      8.49024  eV     1   --> A              
     e(  7 -  7) =      9.30639  eV     1   --> A              
     e(  8 -  8) =      9.99014  eV     1   --> A              

 **************************************************************************

 **************************************************************************

                    xk=(   0.90000,   0.80000,   0.52000  )

     Band symmetry, C_1 (1)     point group:

     e(  1 -  1) =     -4.99524  eV     1   --> A              
     e(  2 -  2) =      1.04700  eV     1   --> A              
     e(  3 -  3) =      3.09416  eV     1   --> A              
     e(  4 -  4) =      3.72423  eV     1   --> A              
     e(  5 -  5) =      6.99725  eV     1   --> A              
     e(  6 -  6) =      8.46991  eV     1   --> A              
     e(  7 -  7) =      9.30639  eV     1   --> A              
     e(  8 -  8) =      9.84921  eV     1   --> A              

 **************************************************************************

 **************************************************************************

                    xk=(   0.90000,   0.80000,   0.54000  )

     Band symmetry, C_1 (1)     point group:

     e(  1 -  1) =     -5.06680  eV     1   --> A              
     e(  2 -  2) =      1.16719  eV     1   --> A              
     e(  3 -  3) =      3.18073  eV     1   --> A              
     e(  4 -  4) =      3.81963  eV     1   --> A              
     e(  5 -  5) =      7.05343  eV     1   --> A              
     e(  6 -  6) =      8.41435  eV     1   --> A              
     e(  7 -  7) =      9.34408  eV     1   --> A              
     e(  8 -  8) =      9.71184  eV     1   --> A              

 **************************************************************************

 **************************************************************************

                    xk=(   0.90000,   0.80000,   0.56000  )

     Band symmetry, C_1 (1)     point group:

     e(  1 -  1) =     -5.13511  eV     1   --> A              
     e(  2 -  2) =      1.28738  eV     1   --> A              
     e(  3 -  3) =      3.26810  eV     1   --> A              
     e(  4 -  4) =      3.91741  eV     1   --> A              
     e(  5 -  5) =      7.10863  eV     1   --> A              
     e(  6 -  6) =      8.33463  eV     1   --> A              
     e(  7 -  7) =      9.40228  eV     1   --> A              
     e(  8 -  8) =      9.58421  eV     1   --> A              

 **************************************************************************

 **************************************************************************

                    xk=(   0.90000,   0.80000,   0.58000  )

     Band symmetry, C_1 (1)     point group:

     e(  1 -  1) =     -5.20055  eV     1   --> A              
     e(  2 -  2) =      1.40750  eV     1   --> A              
     e(  3 -  3) =      3.35607  eV     1   --> A              
     e(  4 -  4) =      4.01649  eV     1   --> A              
     e(  5 -  5) =      7.16168  eV     1   --> A              
     e(  6 -  6) =      8.24203  eV     1   --> A              
     e(  7 -  7) =      9.39851  eV     1   --> A              
     e(  8 -  8) =      9.53611  eV     1   --> A              

 **************************************************************************

 **************************************************************************

                    xk=(   0.90000,   0.80000,   0.60000  )

     Band symmetry, C_1 (1)     point group:

     e(  1 -  1) =     -5.26302  eV     1   --> A              
     e(  2 -  2) =      1.52764  eV     1   --> A              
     e(  3 -  3) =      3.44446  eV     1   --> A              
     e(  4 -  4) =      4.11619  eV     1   --> A              
     e(  5 -  5) =      7.21070  eV     1   --> A              
     e(  6 -  6) =      8.14594  eV     1   --> A              
     e(  7 -  7) =      9.28334  eV     1   --> A              
     e(  8 -  8) =      9.60809  eV     1   --> A              

 **************************************************************************

 **************************************************************************

                    xk=(   0.90000,   0.80000,   0.62000  )

     Band symmetry, C_1 (1)     point group:

     e(  1 -  1) =     -5.32250  eV     1   --> A              
     e(  2 -  2) =      1.64789  eV     1   --> A              
     e(  3 -  3) =      3.53331  eV     1   --> A              
     e(  4 -  4) =      4.21561  eV     1   --> A              
     e(  5 -  5) =      7.25339  eV     1   --> A              
     e(  6 -  6) =      8.05401  eV     1   --> A              
     e(  7 -  7) =      9.15531  eV     1   --> A              
     e(  8 -  8) =      9.69454  eV     1   --> A              

 **************************************************************************

 **************************************************************************

                    xk=(   0.90000,   0.80000,   0.64000  )

     Band symmetry, C_1 (1)     point group:

     e(  1 -  1) =     -5.37888  eV     1   --> A              
     e(  2 -  2) =      1.76852  eV     1   --> A              
     e(  3 -  3) =      3.62258  eV     1   --> A              
     e(  4 -  4) =      4.31406  eV     1   --> A              
     e(  5 -  5) =      7.28507  eV     1   --> A              
     e(  6 -  6) =      7.97327  eV     1   --> A              
     e(  7 -  7) =      9.02797  eV     1   --> A              
     e(  8 -  8) =      9.77602  eV     1   --> A              

 **************************************************************************

 **************************************************************************

                    xk=(   0.90000,   0.80000,   0.66000  )

     Band symmetry, C_1 (1)     point group:

     e(  1 -  1) =     -5.43254  eV     1   --> A              
     e(  2 -  2) =      1.88906  eV     1   --> A              
     e(  3 -  3) =      3.71152  eV     1   --> A              
     e(  4 -  4) =      4.40944  eV     1   --> A              
     e(  5 -  5) =      7.30000  eV     1   --> A              
     e(  6 -  6) =      7.91017  eV     1   --> A              
     e(  7 -  7) =      8.90149  eV     1   --> A              
     e(  8 -  8) =      9.84244  eV     1   --> A              

 **************************************************************************

 **************************************************************************

                    xk=(   0.90000,   0.80000,   0.68000  )

     Band symmetry, C_1 (1)     point group:

     e(  1 -  1) =     -5.48330  eV     1   --> A              
     e(  2 -  2) =      2.00987  eV     1   --> A              
     e(  3 -  3) =      3.80060  eV     1   --> A              
     e(  4 -  4) =      4.50080  eV     1   --> A              
     e(  5 -  5) =      7.29396  eV     1   --> A              
     e(  6 -  6) =      7.87262  eV     1   --> A              
     e(  7 -  7) =      8.77769  eV     1   --> A              
     e(  8 -  8) =      9.88685  eV     1   --> A              

 **************************************************************************

 **************************************************************************

                    xk=(   0.90000,   0.80000,   0.70000  )

     Band symmetry, C_1 (1)     point group:

     e(  1 -  1) =     -5.53114  eV     1   --> A              
     e(  2 -  2) =      2.13084  eV     1   --> A              
     e(  3 -  3) =      3.88909  eV     1   --> A              
     e(  4 -  4) =      4.58557  eV     1   --> A              
     e(  5 -  5) =      7.26700  eV     1   --> A              
     e(  6 -  6) =      7.86049  eV     1   --> A              
     e(  7 -  7) =      8.65688  eV     1   --> A              
     e(  8 -  8) =      9.90191  eV     1   --> A              

 **************************************************************************

 **************************************************************************

                    xk=(   0.90000,   0.80000,   0.72000  )

     Band symmetry, C_1 (1)     point group:

     e(  1 -  1) =     -5.57612  eV     1   --> A              
     e(  2 -  2) =      2.25193  eV     1   --> A              
     e(  3 -  3) =      3.97702  eV     1   --> A              
     e(  4 -  4) =      4.66242  eV     1   --> A              
     e(  5 -  5) =      7.22590  eV     1   --> A              
     e(  6 -  6) =      7.86959  eV     1   --> A              
     e(  7 -  7) =      8.54042  eV     1   --> A              
     e(  8 -  8) =      9.88466  eV     1   --> A              

 **************************************************************************

 **************************************************************************

                    xk=(   0.90000,   0.80000,   0.74000  )

     Band symmetry, C_1 (1)     point group:

     e(  1 -  1) =     -5.61779  eV     1   --> A              
     e(  2 -  2) =      2.37334  eV     1   --> A              
     e(  3 -  3) =      4.06417  eV     1   --> A              
     e(  4 -  4) =      4.72919  eV     1   --> A              
     e(  5 -  5) =      7.18000  eV     1   --> A              
     e(  6 -  6) =      7.89104  eV     1   --> A              
     e(  7 -  7) =      8.42974  eV     1   --> A              
     e(  8 -  8) =      9.83636  eV     1   --> A              

 **************************************************************************

 **************************************************************************

                    xk=(   0.90000,   0.80000,   0.76000  )

     Band symmetry, C_1 (1)     point group:

     e(  1 -  1) =     -5.65656  eV     1   --> A              
     e(  2 -  2) =      2.49480  eV     1   --> A              
     e(  3 -  3) =      4.14978  eV     1   --> A              
     e(  4 -  4) =      4.78341  eV     1   --> A              
     e(  5 -  5) =      7.13765  eV     1   --> A              
     e(  6 -  6) =      7.91574  eV     1   --> A              
     e(  7 -  7) =      8.32843  eV     1   --> A              
     e(  8 -  8) =      9.76207  eV     1   --> A              

 **************************************************************************

 **************************************************************************

                    xk=(   0.90000,   0.80000,   0.78000  )

     Band symmetry, C_1 (1)     point group:

     e(  1 -  1) =     -5.69200  eV     1   --> A              
     e(  2 -  2) =      2.61616  eV     1   --> A              
     e(  3 -  3) =      4.23354  eV     1   --> A              
     e(  4 -  4) =      4.82290  eV     1   --> A              
     e(  5 -  5) =      7.10515  eV     1   --> A              
     e(  6 -  6) =      7.93275  eV     1   --> A              
     e(  7 -  7) =      8.24209  eV     1   --> A              
     e(  8 -  8) =      9.66827  eV     1   --> A              

 **************************************************************************

 **************************************************************************

                    xk=(   0.90000,   0.80000,   0.80000  )

     point group C_s (m)    
     there are  2 classes
     the character table:

       E     s    
A'     1.00  1.00
A''    1.00 -1.00

     the symmetry operations in each class and the name of the first element:

     E        1
                                                                 
     s        2
                                                                 

     Band symmetry, C_s (m)     point group:

     e(  1 -  1) =     -5.72452  eV     1   --> A'             
     e(  2 -  2) =      2.73710  eV     1   --> A'             
     e(  3 -  3) =      4.31450  eV     1   --> A'             
     e(  4 -  4) =      4.84562  eV     1   --> A''            
     e(  5 -  5) =      7.08667  eV     1   --> A'             
     e(  6 -  6) =      7.92615  eV     1   --> A''            
     e(  7 -  7) =      8.18475  eV     1   --> A'             
     e(  8 -  8) =      9.56141  eV     1   --> A'             

 **************************************************************************

 **************************************************************************

                    xk=(   0.90000,   0.80000,   0.82000  )

     point group C_1 (1)    
     there are  1 classes
     the character table:

       E    
A      1.00

     the symmetry operations in each class and the name of the first element:

     E        1
                                                                 

     Band symmetry, C_1 (1)     point group:

     e(  1 -  1) =     -5.75411  eV     1   --> A              
     e(  2 -  2) =      2.85728  eV     1   --> A              
     e(  3 -  3) =      4.39161  eV     1   --> A              
     e(  4 -  4) =      4.85086  eV     1   --> A              
     e(  5 -  5) =      7.08454  eV     1   --> A              
     e(  6 -  6) =      7.88463  eV     1   --> A              
     e(  7 -  7) =      8.16610  eV     1   --> A              
     e(  8 -  8) =      9.44695  eV     1   --> A              

 **************************************************************************

 **************************************************************************

                    xk=(   0.90000,   0.80000,   0.84000  )

     Band symmetry, C_1 (1)     point group:

     e(  1 -  1) =     -5.78070  eV     1   --> A              
     e(  2 -  2) =      2.97635  eV     1   --> A              
     e(  3 -  3) =      4.46314  eV     1   --> A              
     e(  4 -  4) =      4.83975  eV     1   --> A              
     e(  5 -  5) =      7.09929  eV     1   --> A              
     e(  6 -  6) =      7.82016  eV     1   --> A              
     e(  7 -  7) =      8.17317  eV     1   --> A              
     e(  8 -  8) =      9.32952  eV     1   --> A              

 **************************************************************************

 **************************************************************************

                    xk=(   0.90000,   0.80000,   0.86000  )

     Band symmetry, C_1 (1)     point group:

     e(  1 -  1) =     -5.80395  eV     1   --> A              
     e(  2 -  2) =      3.09349  eV     1   --> A              
     e(  3 -  3) =      4.52691  eV     1   --> A              
     e(  4 -  4) =      4.81555  eV     1   --> A              
     e(  5 -  5) =      7.12962  eV     1   --> A              
     e(  6 -  6) =      7.74982  eV     1   --> A              
     e(  7 -  7) =      8.18745  eV     1   --> A              
     e(  8 -  8) =      9.21330  eV     1   --> A              

 **************************************************************************

 **************************************************************************

                    xk=(   0.90000,   0.80000,   0.88000  )

     Band symmetry, C_1 (1)     point group:

     e(  1 -  1) =     -5.82413  eV     1   --> A              
     e(  2 -  2) =      3.20782  eV     1   --> A              
     e(  3 -  3) =      4.57636  eV     1   --> A              
     e(  4 -  4) =      4.78615  eV     1   --> A              
     e(  5 -  5) =      7.17240  eV     1   --> A              
     e(  6 -  6) =      7.68424  eV     1   --> A              
     e(  7 -  7) =      8.19981  eV     1   --> A              
     e(  8 -  8) =      9.10253  eV     1   --> A              

 **************************************************************************

 **************************************************************************

                    xk=(   0.90000,   0.80000,   0.90000  )

     point group C_s (m)    
     there are  2 classes
     the character table:

       E     s    
A'     1.00  1.00
A''    1.00 -1.00

     the symmetry operations in each class and the name of the first element:

     E        1
                                                                 
     s        2
                                                                 

     Band symmetry, C_s (m)     point group:

     e(  1 -  1) =     -5.84117  eV     1   --> A'             
     e(  2 -  2) =      3.31743  eV     1   --> A'             
     e(  3 -  3) =      4.59738  eV     1   --> A''            
     e(  4 -  4) =      4.76746  eV     1   --> A'             
     e(  5 -  5) =      7.22226  eV     1   --> A'             
     e(  6 -  6) =      7.62861  eV     1   --> A'             
     e(  7 -  7) =      8.20341  eV     1   --> A''            
     e(  8 -  8) =      9.00166  eV     1   --> A'             

 **************************************************************************

 **************************************************************************

                    xk=(   0.90000,   0.80000,   0.92000  )

     point group C_1 (1)    
     there are  1 classes
     the character table:

       E    
A      1.00

     the symmetry operations in each class and the name of the first element:

     E        1
                                                                 

     Band symmetry, C_1 (1)     point group:

     e(  1 -  1) =     -5.85517  eV     1   --> A              
     e(  2 -  2) =      3.42067  eV     1   --> A              
     e(  3 -  3) =      4.57646  eV     1   --> A              
     e(  4 -  4) =      4.77633  eV     1   --> A              
     e(  5 -  5) =      7.27133  eV     1   --> A              
     e(  6 -  6) =      7.59051  eV     1   --> A              
     e(  7 -  7) =      8.19676  eV     1   --> A              
     e(  8 -  8) =      8.91538  eV     1   --> A              

 **************************************************************************

 **************************************************************************

                    xk=(   0.90000,   0.80000,   0.94000  )

     Band symmetry, C_1 (1)     point group:

     e(  1 -  1) =     -5.86613  eV     1   --> A              
     e(  2 -  2) =      3.51332  eV     1   --> A              
     e(  3 -  3) =      4.53048  eV     1   --> A              
     e(  4 -  4) =      4.79971  eV     1   --> A              
     e(  5 -  5) =      7.30843  eV     1   --> A              
     e(  6 -  6) =      7.57658  eV     1   --> A              
     e(  7 -  7) =      8.17702  eV     1   --> A              
     e(  8 -  8) =      8.84788  eV     1   --> A              

 **************************************************************************

 **************************************************************************

                    xk=(   0.90000,   0.80000,   0.96000  )

     Band symmetry, C_1 (1)     point group:

     e(  1 -  1) =     -5.87391  eV     1   --> A              
     e(  2 -  2) =      3.58970  eV     1   --> A              
     e(  3 -  3) =      4.48153  eV     1   --> A              
     e(  4 -  4) =      4.82240  eV     1   --> A              
     e(  5 -  5) =      7.32619  eV     1   --> A              
     e(  6 -  6) =      7.58819  eV     1   --> A              
     e(  7 -  7) =      8.14880  eV     1   --> A              
     e(  8 -  8) =      8.80095  eV     1   --> A              

 **************************************************************************

 **************************************************************************

                    xk=(   0.90000,   0.80000,   0.98000  )

     Band symmetry, C_1 (1)     point group:

     e(  1 -  1) =     -5.87883  eV     1   --> A              
     e(  2 -  2) =      3.64128  eV     1   --> A              
     e(  3 -  3) =      4.44427  eV     1   --> A              
     e(  4 -  4) =      4.83721  eV     1   --> A              
     e(  5 -  5) =      7.33012  eV     1   --> A              
     e(  6 -  6) =      7.60977  eV     1   --> A              
     e(  7 -  7) =      8.12201  eV     1   --> A              
     e(  8 -  8) =      8.77371  eV     1   --> A              

 **************************************************************************

 **************************************************************************

                    xk=(   0.90000,   0.80000,   1.00000  )

     zone border point and non-symmorphic group 
     symmetry decomposition not available

 **************************************************************************

     BANDS        :      0.15s CPU      0.15s WALL


   This run was terminated on:  10:20: 6  24Mar2023            

=------------------------------------------------------------------------------=
   JOB DONE.
=------------------------------------------------------------------------------=
