
     Program BANDS v.6.7MaX starts on  1Mar2023 at 20:18:42 

     This program is part of the open-source Quantum ESPRESSO suite
     for quantum simulation of materials; please cite
         "P. Giannozzi et al., J. Phys.:Condens. Matter 21 395502 (2009);
         "P. Giannozzi et al., J. Phys.:Condens. Matter 29 465901 (2017);
          URL http://www.quantum-espresso.org", 
     in publications or presentations arising from this work. More details at
     http://www.quantum-espresso.org/quote

     Parallel version (MPI), running on     1 processors

     MPI processes distributed on     1 nodes

     Reading xml data from directory:

     tmp/silicon.save/

     IMPORTANT: XC functional enforced from input :
     Exchange-correlation= PZ
                           (   1   1   0   0   0   0   0)
     Any further DFT definition will be discarded
     Please, verify this is what you really want


     G-vector sticks info
     --------------------
     sticks:   dense  smooth     PW     G-vecs:    dense   smooth      PW
     Sum         283     283     97                 3143     3143     645

     Reading collected, re-writing distributed wavefunctions
     high-symmetry point:  0.9000 0.0000 0.0000   x coordinate   0.0000
     high-symmetry point:  0.9000 0.0000 0.9000   x coordinate   0.9000
     high-symmetry point:  0.9000 0.1000 0.0000   x coordinate   0.9000
     high-symmetry point:  0.9000 0.1000 0.9000   x coordinate   1.8000
     high-symmetry point:  0.9000 0.2000 0.0000   x coordinate   1.8000
     high-symmetry point:  0.9000 0.2000 0.9000   x coordinate   2.7000
     high-symmetry point:  0.9000 0.3000 0.0000   x coordinate   2.7000
     high-symmetry point:  0.9000 0.3000 0.5000   x coordinate   3.2000

     Plottable bands (eV) written to file si_bands.dat.gnu
     Bands written to file si_bands.dat

 **************************************************************************

                    xk=(   0.90000,   0.00000,   0.00000  )

     point group C_4v (4mm) 
     there are  5 classes
     the character table:

       E     2C4   C2    2s_v  2s_d 
A_1    1.00  1.00  1.00  1.00  1.00
A_2    1.00  1.00  1.00 -1.00 -1.00
B_1    1.00 -1.00  1.00  1.00 -1.00
B_2    1.00 -1.00  1.00 -1.00  1.00
E      2.00  0.00 -2.00  0.00  0.00

     the symmetry operations in each class and the name of the first element:

     E        1
                                                                 
     2C4      3    4
                                                                 
     C2       2
                                                                 
     2s_v     5    6
                                                                 
     2s_d     7    8
                                                                 

     Band symmetry, C_4v (4mm)  point group:

     e(  1 -  1) =     -2.33020  eV     1   --> A_1  G_1 D_1   
     e(  2 -  2) =     -0.75774  eV     1   --> B_2  G_4 D_2'  
     e(  3 -  4) =      3.40159  eV     2   --> E    G_5 D_5   
     e(  6 -  6) =      7.13360  eV     1   --> B_2  G_4 D_2'  
     e(  7 -  8) =     15.77860  eV     2   --> E    G_5 D_5   

 **************************************************************************

 **************************************************************************

                    xk=(   0.90000,   0.00000,   0.10000  )

     point group C_s (m)    
     there are  2 classes
     the character table:

       E     s    
A'     1.00  1.00
A''    1.00 -1.00

     the symmetry operations in each class and the name of the first element:

     E        1
                                                                 
     s        2
                                                                 

     Band symmetry, C_s (m)     point group:

     e(  1 -  1) =     -2.30662  eV     1   --> A'             
     e(  2 -  2) =     -0.75703  eV     1   --> A''            
     e(  3 -  3) =      3.24853  eV     1   --> A'             
     e(  4 -  4) =      3.29600  eV     1   --> A''            
     e(  5 -  5) =      7.02693  eV     1   --> A'             
     e(  6 -  6) =      7.35916  eV     1   --> A''            
     e(  7 -  7) =     15.12474  eV     1   --> A''            
     e(  8 -  8) =     15.76755  eV     1   --> A'             

 **************************************************************************

 **************************************************************************

                    xk=(   0.90000,   0.00000,   0.20000  )

     Band symmetry, C_s (m)     point group:

     e(  1 -  1) =     -2.23462  eV     1   --> A'             
     e(  2 -  2) =     -0.75834  eV     1   --> A''            
     e(  3 -  3) =      2.90067  eV     1   --> A'             
     e(  4 -  4) =      3.06166  eV     1   --> A''            
     e(  5 -  5) =      7.68163  eV     1   --> A'             
     e(  6 -  6) =      7.96701  eV     1   --> A''            
     e(  7 -  7) =     13.91791  eV     1   --> A''            
     e(  8 -  8) =     15.57731  eV     1   --> A'             

 **************************************************************************

 **************************************************************************

                    xk=(   0.90000,   0.00000,   0.30000  )

     Band symmetry, C_s (m)     point group:

     e(  1 -  1) =     -2.12508  eV     1   --> A'             
     e(  2 -  2) =     -0.77900  eV     1   --> A''            
     e(  3 -  3) =      2.52237  eV     1   --> A'             
     e(  4 -  4) =      2.83767  eV     1   --> A''            
     e(  5 -  5) =      8.57780  eV     1   --> A'             
     e(  6 -  6) =      8.82363  eV     1   --> A''            
     e(  7 -  7) =     12.63006  eV     1   --> A''            
     e(  8 -  8) =     14.42020  eV     1   --> A'             

 **************************************************************************

 **************************************************************************

                    xk=(   0.90000,   0.00000,   0.40000  )

     Band symmetry, C_s (m)     point group:

     e(  1 -  1) =     -1.99496  eV     1   --> A'             
     e(  2 -  2) =     -0.83699  eV     1   --> A''            
     e(  3 -  3) =      2.21370  eV     1   --> A'             
     e(  4 -  4) =      2.71833  eV     1   --> A''            
     e(  5 -  5) =      9.61525  eV     1   --> A'             
     e(  6 -  6) =      9.80740  eV     1   --> A''            
     e(  7 -  7) =     11.40567  eV     1   --> A''            
     e(  8 -  8) =     13.12318  eV     1   --> A'             

 **************************************************************************

 **************************************************************************

                    xk=(   0.90000,   0.00000,   0.50000  )

     Band symmetry, C_s (m)     point group:

     e(  1 -  1) =     -1.86775  eV     1   --> A'             
     e(  2 -  2) =     -0.94178  eV     1   --> A''            
     e(  3 -  3) =      2.03270  eV     1   --> A'             
     e(  4 -  4) =      2.74307  eV     1   --> A''            
     e(  5 -  5) =      9.97247  eV     1   --> A''            
     e(  6 -  6) =     10.67866  eV     1   --> A'             
     e(  7 -  7) =     11.18642  eV     1   --> A''            
     e(  8 -  8) =     11.95011  eV     1   --> A'             

 **************************************************************************

 **************************************************************************

                    xk=(   0.90000,   0.00000,   0.60000  )

     Band symmetry, C_s (m)     point group:

     e(  1 -  1) =     -1.76303  eV     1   --> A'             
     e(  2 -  2) =     -1.07915  eV     1   --> A''            
     e(  3 -  3) =      2.01392  eV     1   --> A'             
     e(  4 -  4) =      2.90285  eV     1   --> A''            
     e(  5 -  5) =      8.94857  eV     1   --> A''            
     e(  6 -  6) =     10.49811  eV     1   --> A'             
     e(  7 -  7) =     12.17812  eV     1   --> A'             
     e(  8 -  8) =     12.35303  eV     1   --> A''            

 **************************************************************************

 **************************************************************************

                    xk=(   0.90000,   0.00000,   0.70000  )

     Band symmetry, C_s (m)     point group:

     e(  1 -  1) =     -1.69293  eV     1   --> A'             
     e(  2 -  2) =     -1.22774  eV     1   --> A''            
     e(  3 -  3) =      2.16607  eV     1   --> A'             
     e(  4 -  4) =      3.14522  eV     1   --> A''            
     e(  5 -  5) =      8.00599  eV     1   --> A''            
     e(  6 -  6) =      9.46033  eV     1   --> A'             
     e(  7 -  7) =     13.40911  eV     1   --> A'             
     e(  8 -  8) =     13.64955  eV     1   --> A''            

 **************************************************************************

 **************************************************************************

                    xk=(   0.90000,   0.00000,   0.80000  )

     Band symmetry, C_s (m)     point group:

     e(  1 -  1) =     -1.64753  eV     1   --> A'             
     e(  2 -  2) =     -1.36577  eV     1   --> A''            
     e(  3 -  3) =      2.46538  eV     1   --> A'             
     e(  4 -  4) =      3.37239  eV     1   --> A''            
     e(  5 -  5) =      7.29663  eV     1   --> A''            
     e(  6 -  6) =      8.49621  eV     1   --> A'             
     e(  7 -  7) =     14.68208  eV     1   --> A'             
     e(  8 -  8) =     14.96606  eV     1   --> A''            

 **************************************************************************

 **************************************************************************

                    xk=(   0.90000,   0.00000,   0.90000  )

     point group C_2v (mm2) 
     there are  4 classes
     the character table:

       E     C2    s_v   s_v' 
A_1    1.00  1.00  1.00  1.00
A_2    1.00  1.00 -1.00 -1.00
B_1    1.00 -1.00  1.00 -1.00
B_2    1.00 -1.00 -1.00  1.00

     the symmetry operations in each class and the name of the first element:

     E        1
                                                                 
     C2       2
                                                                 
     s_v      3
                                                                 
     s_v'     4
                                                                 

     Band symmetry, C_2v (mm2)  point group:

     e(  1 -  1) =     -1.60848  eV     1   --> A_1  D_1  S_1  
     e(  2 -  2) =     -1.47627  eV     1   --> B_2  D_4  S_4  
     e(  3 -  3) =      2.85400  eV     1   --> A_1  D_1  S_1  
     e(  4 -  4) =      3.43265  eV     1   --> A_2  D_2  S_2  
     e(  5 -  5) =      6.97498  eV     1   --> B_2  D_4  S_4  
     e(  6 -  6) =      7.68962  eV     1   --> A_1  D_1  S_1  
     e(  7 -  7) =     15.68942  eV     1   --> B_1  D_3  S_3  
     e(  8 -  8) =     15.96931  eV     1   --> B_2  D_4  S_4  

 **************************************************************************

 **************************************************************************

                    xk=(   0.90000,   0.10000,   0.00000  )

     point group C_s (m)    
     there are  2 classes
     the character table:

       E     s    
A'     1.00  1.00
A''    1.00 -1.00

     the symmetry operations in each class and the name of the first element:

     E        1
                                                                 
     s        2
                                                                 

     Band symmetry, C_s (m)     point group:

     e(  1 -  1) =     -2.30662  eV     1   --> A'             
     e(  2 -  2) =     -0.75703  eV     1   --> A''            
     e(  3 -  3) =      3.24853  eV     1   --> A'             
     e(  4 -  4) =      3.29600  eV     1   --> A''            
     e(  5 -  5) =      7.02693  eV     1   --> A'             
     e(  6 -  6) =      7.35916  eV     1   --> A''            
     e(  7 -  7) =     15.12474  eV     1   --> A''            
     e(  8 -  8) =     15.76755  eV     1   --> A'             

 **************************************************************************

 **************************************************************************

                    xk=(   0.90000,   0.10000,   0.10000  )

     Band symmetry, C_s (m)     point group:

     e(  1 -  1) =     -2.28526  eV     1   --> A'             
     e(  2 -  2) =     -0.75701  eV     1   --> A'             
     e(  3 -  3) =      2.90818  eV     1   --> A'             
     e(  4 -  4) =      3.47217  eV     1   --> A''            
     e(  5 -  5) =      7.00217  eV     1   --> A'             
     e(  6 -  6) =      7.77880  eV     1   --> A'             
     e(  7 -  7) =     15.08364  eV     1   --> A''            
     e(  8 -  8) =     15.17249  eV     1   --> A'             

 **************************************************************************

 **************************************************************************

                    xk=(   0.90000,   0.10000,   0.20000  )

     point group C_1 (1)    
     there are  1 classes
     the character table:

       E    
A      1.00

     the symmetry operations in each class and the name of the first element:

     E        1
                                                                 

     Band symmetry, C_1 (1)     point group:

     e(  1 -  1) =     -2.22716  eV     1   --> A              
     e(  2 -  2) =     -0.76098  eV     1   --> A              
     e(  3 -  3) =      2.53279  eV     1   --> A              
     e(  4 -  4) =      3.41866  eV     1   --> A              
     e(  5 -  5) =      7.34054  eV     1   --> A              
     e(  6 -  6) =      8.56360  eV     1   --> A              
     e(  7 -  7) =     13.92867  eV     1   --> A              
     e(  8 -  8) =     15.11838  eV     1   --> A              

 **************************************************************************

 **************************************************************************

                    xk=(   0.90000,   0.10000,   0.30000  )

     Band symmetry, C_1 (1)     point group:

     e(  1 -  1) =     -2.14689  eV     1   --> A              
     e(  2 -  2) =     -0.77588  eV     1   --> A              
     e(  3 -  3) =      2.24063  eV     1   --> A              
     e(  4 -  4) =      3.21423  eV     1   --> A              
     e(  5 -  5) =      8.05006  eV     1   --> A              
     e(  6 -  6) =      9.51864  eV     1   --> A              
     e(  7 -  7) =     12.65354  eV     1   --> A              
     e(  8 -  8) =     14.44752  eV     1   --> A              

 **************************************************************************

 **************************************************************************

                    xk=(   0.90000,   0.10000,   0.40000  )

     Band symmetry, C_1 (1)     point group:

     e(  1 -  1) =     -2.07453  eV     1   --> A              
     e(  2 -  2) =     -0.79902  eV     1   --> A              
     e(  3 -  3) =      2.07052  eV     1   --> A              
     e(  4 -  4) =      3.01744  eV     1   --> A              
     e(  5 -  5) =      8.98974  eV     1   --> A              
     e(  6 -  6) =     10.52148  eV     1   --> A              
     e(  7 -  7) =     11.46907  eV     1   --> A              
     e(  8 -  8) =     13.16622  eV     1   --> A              

 **************************************************************************

 **************************************************************************

                    xk=(   0.90000,   0.10000,   0.50000  )

     zone border point and non-symmorphic group 
     symmetry decomposition not available

 **************************************************************************

 **************************************************************************

                    xk=(   0.90000,   0.10000,   0.60000  )

     point group C_1 (1)    
     there are  1 classes
     the character table:

       E    
A      1.00

     the symmetry operations in each class and the name of the first element:

     E        1
                                                                 

     Band symmetry, C_1 (1)     point group:

     e(  1 -  1) =     -2.07453  eV     1   --> A              
     e(  2 -  2) =     -0.79902  eV     1   --> A              
     e(  3 -  3) =      2.07052  eV     1   --> A              
     e(  4 -  4) =      3.01744  eV     1   --> A              
     e(  5 -  5) =      8.98974  eV     1   --> A              
     e(  6 -  6) =     10.52148  eV     1   --> A              
     e(  7 -  7) =     11.46907  eV     1   --> A              
     e(  8 -  8) =     13.16622  eV     1   --> A              

 **************************************************************************

 **************************************************************************

                    xk=(   0.90000,   0.10000,   0.70000  )

     Band symmetry, C_1 (1)     point group:

     e(  1 -  1) =     -2.14689  eV     1   --> A              
     e(  2 -  2) =     -0.77588  eV     1   --> A              
     e(  3 -  3) =      2.24063  eV     1   --> A              
     e(  4 -  4) =      3.21423  eV     1   --> A              
     e(  5 -  5) =      8.05006  eV     1   --> A              
     e(  6 -  6) =      9.51864  eV     1   --> A              
     e(  7 -  7) =     12.65354  eV     1   --> A              
     e(  8 -  8) =     14.44752  eV     1   --> A              

 **************************************************************************

 **************************************************************************

                    xk=(   0.90000,   0.10000,   0.80000  )

     Band symmetry, C_1 (1)     point group:

     e(  1 -  1) =     -2.22716  eV     1   --> A              
     e(  2 -  2) =     -0.76098  eV     1   --> A              
     e(  3 -  3) =      2.53279  eV     1   --> A              
     e(  4 -  4) =      3.41866  eV     1   --> A              
     e(  5 -  5) =      7.34054  eV     1   --> A              
     e(  6 -  6) =      8.56360  eV     1   --> A              
     e(  7 -  7) =     13.92867  eV     1   --> A              
     e(  8 -  8) =     15.11838  eV     1   --> A              

 **************************************************************************

 **************************************************************************

                    xk=(   0.90000,   0.10000,   0.90000  )

     point group C_s (m)    
     there are  2 classes
     the character table:

       E     s    
A'     1.00  1.00
A''    1.00 -1.00

     the symmetry operations in each class and the name of the first element:

     E        1
                                                                 
     s        2
                                                                 

     Band symmetry, C_s (m)     point group:

     e(  1 -  1) =     -2.28526  eV     1   --> A'             
     e(  2 -  2) =     -0.75701  eV     1   --> A'             
     e(  3 -  3) =      2.90818  eV     1   --> A'             
     e(  4 -  4) =      3.47217  eV     1   --> A''            
     e(  5 -  5) =      7.00217  eV     1   --> A'             
     e(  6 -  6) =      7.77880  eV     1   --> A'             
     e(  7 -  7) =     15.08364  eV     1   --> A''            
     e(  8 -  8) =     15.17249  eV     1   --> A'             

 **************************************************************************

 **************************************************************************

                    xk=(   0.90000,   0.20000,   0.00000  )

     Band symmetry, C_s (m)     point group:

     e(  1 -  1) =     -2.23462  eV     1   --> A'             
     e(  2 -  2) =     -0.75834  eV     1   --> A''            
     e(  3 -  3) =      2.90067  eV     1   --> A'             
     e(  4 -  4) =      3.06166  eV     1   --> A''            
     e(  5 -  5) =      7.68163  eV     1   --> A'             
     e(  6 -  6) =      7.96701  eV     1   --> A''            
     e(  7 -  7) =     13.91791  eV     1   --> A''            
     e(  8 -  8) =     15.57731  eV     1   --> A'             

 **************************************************************************

 **************************************************************************

                    xk=(   0.90000,   0.20000,   0.10000  )

     point group C_1 (1)    
     there are  1 classes
     the character table:

       E    
A      1.00

     the symmetry operations in each class and the name of the first element:

     E        1
                                                                 

     Band symmetry, C_1 (1)     point group:

     e(  1 -  1) =     -2.22716  eV     1   --> A              
     e(  2 -  2) =     -0.76098  eV     1   --> A              
     e(  3 -  3) =      2.53279  eV     1   --> A              
     e(  4 -  4) =      3.41866  eV     1   --> A              
     e(  5 -  5) =      7.34054  eV     1   --> A              
     e(  6 -  6) =      8.56360  eV     1   --> A              
     e(  7 -  7) =     13.92867  eV     1   --> A              
     e(  8 -  8) =     15.11838  eV     1   --> A              

 **************************************************************************

 **************************************************************************

                    xk=(   0.90000,   0.20000,   0.20000  )

     point group C_s (m)    
     there are  2 classes
     the character table:

       E     s    
A'     1.00  1.00
A''    1.00 -1.00

     the symmetry operations in each class and the name of the first element:

     E        1
                                                                 
     s        2
                                                                 

     Band symmetry, C_s (m)     point group:

     e(  1 -  1) =     -2.21398  eV     1   --> A'             
     e(  2 -  2) =     -0.76426  eV     1   --> A'             
     e(  3 -  3) =      2.19029  eV     1   --> A'             
     e(  4 -  4) =      3.68137  eV     1   --> A''            
     e(  5 -  5) =      7.27222  eV     1   --> A'             
     e(  6 -  6) =      9.44520  eV     1   --> A'             
     e(  7 -  7) =     13.89633  eV     1   --> A''            
     e(  8 -  8) =     14.04168  eV     1   --> A'             

 **************************************************************************

 **************************************************************************

                    xk=(   0.90000,   0.20000,   0.30000  )

     point group C_1 (1)    
     there are  1 classes
     the character table:

       E    
A      1.00

     the symmetry operations in each class and the name of the first element:

     E        1
                                                                 

     Band symmetry, C_1 (1)     point group:

     e(  1 -  1) =     -2.22461  eV     1   --> A              
     e(  2 -  2) =     -0.74888  eV     1   --> A              
     e(  3 -  3) =      1.99570  eV     1   --> A              
     e(  4 -  4) =      3.69520  eV     1   --> A              
     e(  5 -  5) =      7.66875  eV     1   --> A              
     e(  6 -  6) =     10.44197  eV     1   --> A              
     e(  7 -  7) =     12.71964  eV     1   --> A              
     e(  8 -  8) =     14.00781  eV     1   --> A              

 **************************************************************************

 **************************************************************************

                    xk=(   0.90000,   0.20000,   0.40000  )

     Band symmetry, C_1 (1)     point group:

     e(  1 -  1) =     -2.29256  eV     1   --> A              
     e(  2 -  2) =     -0.68259  eV     1   --> A              
     e(  3 -  3) =      1.95891  eV     1   --> A              
     e(  4 -  4) =      3.55267  eV     1   --> A              
     e(  5 -  5) =      8.43295  eV     1   --> A              
     e(  6 -  6) =     11.20503  eV     1   --> A              
     e(  7 -  7) =     11.81107  eV     1   --> A              
     e(  8 -  8) =     13.28747  eV     1   --> A              

 **************************************************************************

 **************************************************************************

                    xk=(   0.90000,   0.20000,   0.50000  )

     Band symmetry, C_1 (1)     point group:

     e(  1 -  1) =     -2.42254  eV     1   --> A              
     e(  2 -  2) =     -0.54731  eV     1   --> A              
     e(  3 -  3) =      2.05142  eV     1   --> A              
     e(  4 -  4) =      3.40494  eV     1   --> A              
     e(  5 -  5) =      9.40547  eV     1   --> A              
     e(  6 -  6) =     10.22352  eV     1   --> A              
     e(  7 -  7) =     11.97242  eV     1   --> A              
     e(  8 -  8) =     12.90466  eV     1   --> A              

 **************************************************************************

 **************************************************************************

                    xk=(   0.90000,   0.20000,   0.60000  )

     Band symmetry, C_1 (1)     point group:

     e(  1 -  1) =     -2.58710  eV     1   --> A              
     e(  2 -  2) =     -0.36428  eV     1   --> A              
     e(  3 -  3) =      2.22619  eV     1   --> A              
     e(  4 -  4) =      3.35295  eV     1   --> A              
     e(  5 -  5) =      9.11149  eV     1   --> A              
     e(  6 -  6) =     10.42477  eV     1   --> A              
     e(  7 -  7) =     10.98678  eV     1   --> A              
     e(  8 -  8) =     14.12251  eV     1   --> A              

 **************************************************************************

 **************************************************************************

                    xk=(   0.90000,   0.20000,   0.70000  )

     Band symmetry, C_1 (1)     point group:

     e(  1 -  1) =     -2.75009  eV     1   --> A              
     e(  2 -  2) =     -0.17965  eV     1   --> A              
     e(  3 -  3) =      2.45181  eV     1   --> A              
     e(  4 -  4) =      3.42814  eV     1   --> A              
     e(  5 -  5) =      8.17861  eV     1   --> A              
     e(  6 -  6) =      9.69546  eV     1   --> A              
     e(  7 -  7) =     11.85420  eV     1   --> A              
     e(  8 -  8) =     14.22461  eV     1   --> A              

 **************************************************************************

 **************************************************************************

                    xk=(   0.90000,   0.20000,   0.80000  )

     Band symmetry, C_1 (1)     point group:

     e(  1 -  1) =     -2.88328  eV     1   --> A              
     e(  2 -  2) =     -0.03543  eV     1   --> A              
     e(  3 -  3) =      2.73405  eV     1   --> A              
     e(  4 -  4) =      3.56015  eV     1   --> A              
     e(  5 -  5) =      7.46662  eV     1   --> A              
     e(  6 -  6) =      8.76918  eV     1   --> A              
     e(  7 -  7) =     13.07739  eV     1   --> A              
     e(  8 -  8) =     14.22751  eV     1   --> A              

 **************************************************************************

 **************************************************************************

                    xk=(   0.90000,   0.20000,   0.90000  )

     point group C_s (m)    
     there are  2 classes
     the character table:

       E     s    
A'     1.00  1.00
A''    1.00 -1.00

     the symmetry operations in each class and the name of the first element:

     E        1
                                                                 
     s        2
                                                                 

     Band symmetry, C_s (m)     point group:

     e(  1 -  1) =     -2.96854  eV     1   --> A'             
     e(  2 -  2) =      0.04950  eV     1   --> A'             
     e(  3 -  3) =      3.07151  eV     1   --> A'             
     e(  4 -  4) =      3.59114  eV     1   --> A''            
     e(  5 -  5) =      7.09177  eV     1   --> A'             
     e(  6 -  6) =      8.03681  eV     1   --> A'             
     e(  7 -  7) =     14.22115  eV     1   --> A'             
     e(  8 -  8) =     14.22880  eV     1   --> A''            

 **************************************************************************

 **************************************************************************

                    xk=(   0.90000,   0.30000,   0.00000  )

     Band symmetry, C_s (m)     point group:

     e(  1 -  1) =     -2.12508  eV     1   --> A'             
     e(  2 -  2) =     -0.77900  eV     1   --> A''            
     e(  3 -  3) =      2.52237  eV     1   --> A'             
     e(  4 -  4) =      2.83767  eV     1   --> A''            
     e(  5 -  5) =      8.57780  eV     1   --> A'             
     e(  6 -  6) =      8.82363  eV     1   --> A''            
     e(  7 -  7) =     12.63006  eV     1   --> A''            
     e(  8 -  8) =     14.42020  eV     1   --> A'             

 **************************************************************************

 **************************************************************************

                    xk=(   0.90000,   0.30000,   0.10000  )

     point group C_1 (1)    
     there are  1 classes
     the character table:

       E    
A      1.00

     the symmetry operations in each class and the name of the first element:

     E        1
                                                                 

     Band symmetry, C_1 (1)     point group:

     e(  1 -  1) =     -2.14689  eV     1   --> A              
     e(  2 -  2) =     -0.77588  eV     1   --> A              
     e(  3 -  3) =      2.24063  eV     1   --> A              
     e(  4 -  4) =      3.21423  eV     1   --> A              
     e(  5 -  5) =      8.05006  eV     1   --> A              
     e(  6 -  6) =      9.51864  eV     1   --> A              
     e(  7 -  7) =     12.65354  eV     1   --> A              
     e(  8 -  8) =     14.44752  eV     1   --> A              

 **************************************************************************

 **************************************************************************

                    xk=(   0.90000,   0.30000,   0.20000  )

     Band symmetry, C_1 (1)     point group:

     e(  1 -  1) =     -2.22461  eV     1   --> A              
     e(  2 -  2) =     -0.74888  eV     1   --> A              
     e(  3 -  3) =      1.99570  eV     1   --> A              
     e(  4 -  4) =      3.69520  eV     1   --> A              
     e(  5 -  5) =      7.66875  eV     1   --> A              
     e(  6 -  6) =     10.44197  eV     1   --> A              
     e(  7 -  7) =     12.71964  eV     1   --> A              
     e(  8 -  8) =     14.00781  eV     1   --> A              

 **************************************************************************

 **************************************************************************

                    xk=(   0.90000,   0.30000,   0.30000  )

     point group C_s (m)    
     there are  2 classes
     the character table:

       E     s    
A'     1.00  1.00
A''    1.00 -1.00

     the symmetry operations in each class and the name of the first element:

     E        1
                                                                 
     s        2
                                                                 

     Band symmetry, C_s (m)     point group:

     e(  1 -  1) =     -2.37879  eV     1   --> A'             
     e(  2 -  2) =     -0.66089  eV     1   --> A'             
     e(  3 -  3) =      1.91699  eV     1   --> A'             
     e(  4 -  4) =      4.01656  eV     1   --> A''            
     e(  5 -  5) =      7.66745  eV     1   --> A'             
     e(  6 -  6) =     11.43634  eV     1   --> A'             
     e(  7 -  7) =     12.72927  eV     1   --> A''            
     e(  8 -  8) =     12.92845  eV     1   --> A'             

 **************************************************************************

 **************************************************************************

                    xk=(   0.90000,   0.30000,   0.40000  )

     point group C_1 (1)    
     there are  1 classes
     the character table:

       E    
A      1.00

     the symmetry operations in each class and the name of the first element:

     E        1
                                                                 

     Band symmetry, C_1 (1)     point group:

     e(  1 -  1) =     -2.60090  eV     1   --> A              
     e(  2 -  2) =     -0.48743  eV     1   --> A              
     e(  3 -  3) =      1.99247  eV     1   --> A              
     e(  4 -  4) =      4.08643  eV     1   --> A              
     e(  5 -  5) =      8.11964  eV     1   --> A              
     e(  6 -  6) =     11.49949  eV     1   --> A              
     e(  7 -  7) =     12.58044  eV     1   --> A              
     e(  8 -  8) =     12.98132  eV     1   --> A              

 **************************************************************************

 **************************************************************************

                    xk=(   0.90000,   0.30000,   0.50000  )

     Band symmetry, C_1 (1)     point group:

     e(  1 -  1) =     -2.85611  eV     1   --> A              
     e(  2 -  2) =     -0.23465  eV     1   --> A              
     e(  3 -  3) =      2.18741  eV     1   --> A              
     e(  4 -  4) =      3.99090  eV     1   --> A              
     e(  5 -  5) =      8.92470  eV     1   --> A              
     e(  6 -  6) =     10.37833  eV     1   --> A              
     e(  7 -  7) =     12.23322  eV     1   --> A              
     e(  8 -  8) =     13.03170  eV     1   --> A              

 **************************************************************************

     BANDS        :      0.17s CPU      0.18s WALL


   This run was terminated on:  20:18:42   1Mar2023            

=------------------------------------------------------------------------------=
   JOB DONE.
=------------------------------------------------------------------------------=
