
     Program BANDS v.6.7MaX starts on 23Feb2023 at 11:52:18 

     This program is part of the open-source Quantum ESPRESSO suite
     for quantum simulation of materials; please cite
         "P. Giannozzi et al., J. Phys.:Condens. Matter 21 395502 (2009);
         "P. Giannozzi et al., J. Phys.:Condens. Matter 29 465901 (2017);
          URL http://www.quantum-espresso.org", 
     in publications or presentations arising from this work. More details at
     http://www.quantum-espresso.org/quote

     Parallel version (MPI), running on     1 processors

     MPI processes distributed on     1 nodes

     Reading xml data from directory:

     tmp/silicon.save/

     IMPORTANT: XC functional enforced from input :
     Exchange-correlation= PZ
                           (   1   1   0   0   0   0   0)
     Any further DFT definition will be discarded
     Please, verify this is what you really want


     G-vector sticks info
     --------------------
     sticks:   dense  smooth     PW     G-vecs:    dense   smooth      PW
     Sum         283     283    109                 3143     3143     701

     Reading collected, re-writing distributed wavefunctions
     high-symmetry point:  0.5000 0.5000 0.5000   x coordinate   0.0000
     high-symmetry point:  0.0000 0.0000 0.0000   x coordinate   0.8660
     high-symmetry point:  0.1000 0.0000 0.1000   x coordinate   1.0074
     high-symmetry point:  0.1000 0.0000 1.0000   x coordinate   1.9074
     high-symmetry point:  0.1000 1.0000 1.0000   x coordinate   2.9074
     high-symmetry point:  0.1000 0.0000 0.0000   x coordinate   4.3217

     Plottable bands (eV) written to file si_bands.dat.gnu
     Bands written to file si_bands.dat

 **************************************************************************

                    xk=(   0.50000,   0.50000,   0.50000  )

     zone border point and non-symmorphic group 
     symmetry decomposition not available

 **************************************************************************

 **************************************************************************

                    xk=(   0.40000,   0.40000,   0.40000  )

     point group C_3v (3m)  
     there are  3 classes
     the character table:

       E     2C3   3s_v 
A_1    1.00  1.00  1.00
A_2    1.00  1.00 -1.00
E      2.00 -1.00  0.00

     the symmetry operations in each class and the name of the first element:

     E        1
                                                                 
     2C3      2    3
                                                                 
     3s_v     4    5    6
                                                                 

     Band symmetry, C_3v (3m)   point group:

     e(  1 -  1) =     -3.86519  eV     1   --> A_1  L_1       
     e(  2 -  2) =     -0.07771  eV     1   --> A_1  L_1       
     e(  3 -  4) =      5.13320  eV     2   --> E    L_3       
     e(  5 -  5) =      7.91580  eV     1   --> A_1  L_1       
     e(  6 -  7) =      9.68342  eV     2   --> E    L_3       
     e(  8 -  8) =     13.96228  eV     1   --> A_1  L_1       

 **************************************************************************

 **************************************************************************

                    xk=(   0.30000,   0.30000,   0.30000  )

     Band symmetry, C_3v (3m)   point group:

     e(  1 -  1) =     -4.63378  eV     1   --> A_1  L_1       
     e(  2 -  2) =      1.43140  eV     1   --> A_1  L_1       
     e(  3 -  4) =      5.34950  eV     2   --> E    L_3       
     e(  5 -  5) =      8.15316  eV     1   --> A_1  L_1       
     e(  6 -  7) =      9.81318  eV     2   --> E    L_3       
     e(  8 -  8) =     13.86456  eV     1   --> A_1  L_1       

 **************************************************************************

 **************************************************************************

                    xk=(   0.20000,   0.20000,   0.20000  )

     Band symmetry, C_3v (3m)   point group:

     e(  1 -  1) =     -5.26100  eV     1   --> A_1  L_1       
     e(  2 -  2) =      3.24792  eV     1   --> A_1  L_1       
     e(  3 -  4) =      5.69199  eV     2   --> E    L_3       
     e(  5 -  5) =      8.51648  eV     1   --> A_1  L_1       
     e(  6 -  7) =      9.65136  eV     2   --> E    L_3       
     e(  8 -  8) =     12.36520  eV     1   --> A_1  L_1       

 **************************************************************************

 **************************************************************************

                    xk=(   0.10000,   0.10000,   0.10000  )

     Band symmetry, C_3v (3m)   point group:

     e(  1 -  1) =     -5.65481  eV     1   --> A_1  L_1       
     e(  2 -  2) =      5.13370  eV     1   --> A_1  L_1       
     e(  3 -  4) =      6.08104  eV     2   --> E    L_3       
     e(  5 -  5) =      8.86576  eV     1   --> A_1  L_1       
     e(  6 -  7) =      9.13507  eV     2   --> E    L_3       
     e(  8 -  8) =     10.64619  eV     1   --> A_1  L_1       

 **************************************************************************

 **************************************************************************

                    xk=(   0.00000,   0.00000,   0.00000  )

     point group O_h (m-3m) 
     there are 10 classes
     the character table:

       E     8C3   3C2   6C4   6C2'  i     8S6   3s_h  6S4   6s_d 
A_1g   1.00  1.00  1.00  1.00  1.00  1.00  1.00  1.00  1.00  1.00
A_2g   1.00  1.00  1.00 -1.00 -1.00  1.00  1.00  1.00 -1.00 -1.00
E_g    2.00 -1.00  2.00  0.00  0.00  2.00 -1.00  2.00  0.00  0.00
T_1g   3.00  0.00 -1.00  1.00 -1.00  3.00  0.00 -1.00  1.00 -1.00
T_2g   3.00  0.00 -1.00 -1.00  1.00  3.00  0.00 -1.00 -1.00  1.00
A_1u   1.00  1.00  1.00  1.00  1.00 -1.00 -1.00 -1.00 -1.00 -1.00
A_2u   1.00  1.00  1.00 -1.00 -1.00 -1.00 -1.00 -1.00  1.00  1.00
E_u    2.00 -1.00  2.00  0.00  0.00 -2.00  1.00 -2.00  0.00  0.00
T_1u   3.00  0.00 -1.00  1.00 -1.00 -3.00  0.00  1.00 -1.00  1.00
T_2u   3.00  0.00 -1.00 -1.00  1.00 -3.00  0.00  1.00  1.00 -1.00

     the symmetry operations in each class and the name of the first element:

     E        1
                                                                 
     8C3     17   19   20   18   24   21   22   23
                                                                 
     3C2      2    4    3
                                                                 
     6C4      7    8   15   16   12   11
                                                                 
     6C2'     5    6   14   13   10    9
                                                                 
     i       25
                                                                 
     8S6     41   43   44   42   48   45   46   47
                                                                 
     3s_h    26   28   27
                                                                 
     6S4     31   32   39   40   36   35
                                                                 
     6s_d    29   30   38   37   34   33
                                                                 

     Band symmetry, O_h (m-3m)  point group:

     e(  1 -  1) =     -5.78870  eV     1   --> A_1g G_1   G_1+
     e(  2 -  4) =      6.28498  eV     3   --> T_2g G_25' G_5+
     e(  5 -  7) =      8.83459  eV     3   --> T_1u G_15  G_4-
     e(  8 -  8) =      9.75957  eV     1   --> A_2u G_2'  G_2-

 **************************************************************************

 **************************************************************************

                    xk=(   0.10000,   0.00000,   0.10000  )

     point group C_2v (mm2) 
     there are  4 classes
     the character table:

       E     C2    s_v   s_v' 
A_1    1.00  1.00  1.00  1.00
A_2    1.00  1.00 -1.00 -1.00
B_1    1.00 -1.00  1.00 -1.00
B_2    1.00 -1.00 -1.00  1.00

     the symmetry operations in each class and the name of the first element:

     E        1
                                                                 
     C2       2
                                                                 
     s_v      3
                                                                 
     s_v'     4
                                                                 

     Band symmetry, C_2v (mm2)  point group:

     e(  1 -  1) =     -5.69964  eV     1   --> A_1  D_1  S_1  
     e(  2 -  2) =      5.54820  eV     1   --> B_2  D_4  S_4  
     e(  3 -  3) =      5.92158  eV     1   --> A_1  D_1  S_1  
     e(  4 -  4) =      6.24562  eV     1   --> A_2  D_2  S_2  
     e(  5 -  5) =      8.92798  eV     1   --> B_1  D_3  S_3  
     e(  6 -  6) =      9.00088  eV     1   --> A_1  D_1  S_1  
     e(  7 -  7) =      9.09806  eV     1   --> B_2  D_4  S_4  
     e(  8 -  8) =     10.35205  eV     1   --> B_2  D_4  S_4  

 **************************************************************************

 **************************************************************************

                    xk=(   0.10000,   0.00000,   0.20000  )

     point group C_s (m)    
     there are  2 classes
     the character table:

       E     s    
A'     1.00  1.00
A''    1.00 -1.00

     the symmetry operations in each class and the name of the first element:

     E        1
                                                                 
     s        2
                                                                 

     Band symmetry, C_s (m)     point group:

     e(  1 -  1) =     -5.56591  eV     1   --> A'             
     e(  2 -  2) =      4.89969  eV     1   --> A''            
     e(  3 -  3) =      5.50654  eV     1   --> A'             
     e(  4 -  4) =      6.00111  eV     1   --> A''            
     e(  5 -  5) =      8.68151  eV     1   --> A'             
     e(  6 -  6) =      9.41982  eV     1   --> A''            
     e(  7 -  7) =      9.55336  eV     1   --> A'             
     e(  8 -  8) =     10.94068  eV     1   --> A''            

 **************************************************************************

 **************************************************************************

                    xk=(   0.10000,   0.00000,   0.30000  )

     Band symmetry, C_s (m)     point group:

     e(  1 -  1) =     -5.34573  eV     1   --> A'             
     e(  2 -  2) =      4.18339  eV     1   --> A''            
     e(  3 -  3) =      5.02858  eV     1   --> A'             
     e(  4 -  4) =      5.50875  eV     1   --> A''            
     e(  5 -  5) =      8.31951  eV     1   --> A'             
     e(  6 -  6) =     10.00089  eV     1   --> A''            
     e(  7 -  7) =     10.30486  eV     1   --> A'             
     e(  8 -  8) =     11.06600  eV     1   --> A''            

 **************************************************************************

 **************************************************************************

                    xk=(   0.10000,   0.00000,   0.40000  )

     Band symmetry, C_s (m)     point group:

     e(  1 -  1) =     -5.03910  eV     1   --> A'             
     e(  2 -  2) =      3.42155  eV     1   --> A''            
     e(  3 -  3) =      4.56726  eV     1   --> A'             
     e(  4 -  4) =      4.96454  eV     1   --> A''            
     e(  5 -  5) =      7.94689  eV     1   --> A'             
     e(  6 -  6) =     10.22053  eV     1   --> A''            
     e(  7 -  7) =     10.93707  eV     1   --> A''            
     e(  8 -  8) =     11.14353  eV     1   --> A'             

 **************************************************************************

 **************************************************************************

                    xk=(   0.10000,   0.00000,   0.50000  )

     Band symmetry, C_s (m)     point group:

     e(  1 -  1) =     -4.64752  eV     1   --> A'             
     e(  2 -  2) =      2.61796  eV     1   --> A''            
     e(  3 -  3) =      4.15720  eV     1   --> A'             
     e(  4 -  4) =      4.46181  eV     1   --> A''            
     e(  5 -  5) =      7.60797  eV     1   --> A'             
     e(  6 -  6) =      9.50609  eV     1   --> A''            
     e(  7 -  7) =     11.66039  eV     1   --> A''            
     e(  8 -  8) =     12.03084  eV     1   --> A'             

 **************************************************************************

 **************************************************************************

                    xk=(   0.10000,   0.00000,   0.60000  )

     Band symmetry, C_s (m)     point group:

     e(  1 -  1) =     -4.17419  eV     1   --> A'             
     e(  2 -  2) =      1.78152  eV     1   --> A''            
     e(  3 -  3) =      3.81321  eV     1   --> A'             
     e(  4 -  4) =      4.03629  eV     1   --> A''            
     e(  5 -  5) =      7.33145  eV     1   --> A'             
     e(  6 -  6) =      8.79018  eV     1   --> A''            
     e(  7 -  7) =     12.48519  eV     1   --> A''            
     e(  8 -  8) =     12.94757  eV     1   --> A'             

 **************************************************************************

 **************************************************************************

                    xk=(   0.10000,   0.00000,   0.70000  )

     Band symmetry, C_s (m)     point group:

     e(  1 -  1) =     -3.62282  eV     1   --> A'             
     e(  2 -  2) =      0.92812  eV     1   --> A''            
     e(  3 -  3) =      3.54409  eV     1   --> A'             
     e(  4 -  4) =      3.69909  eV     1   --> A''            
     e(  5 -  5) =      7.13491  eV     1   --> A'             
     e(  6 -  6) =      8.18545  eV     1   --> A''            
     e(  7 -  7) =     13.34171  eV     1   --> A''            
     e(  8 -  8) =     13.88433  eV     1   --> A'             

 **************************************************************************

 **************************************************************************

                    xk=(   0.10000,   0.00000,   0.80000  )

     Band symmetry, C_s (m)     point group:

     e(  1 -  1) =     -2.99844  eV     1   --> A'             
     e(  2 -  2) =      0.07566  eV     1   --> A''            
     e(  3 -  3) =      3.35448  eV     1   --> A'             
     e(  4 -  4) =      3.45244  eV     1   --> A''            
     e(  5 -  5) =      7.02930  eV     1   --> A'             
     e(  6 -  6) =      7.70776  eV     1   --> A''            
     e(  7 -  7) =     14.22097  eV     1   --> A''            
     e(  8 -  8) =     14.83437  eV     1   --> A'             

 **************************************************************************

 **************************************************************************

                    xk=(   0.10000,   0.00000,   0.90000  )

     Band symmetry, C_s (m)     point group:

     e(  1 -  1) =     -2.30662  eV     1   --> A'             
     e(  2 -  2) =     -0.75703  eV     1   --> A''            
     e(  3 -  3) =      3.24853  eV     1   --> A'             
     e(  4 -  4) =      3.29600  eV     1   --> A''            
     e(  5 -  5) =      7.02693  eV     1   --> A'             
     e(  6 -  6) =      7.35916  eV     1   --> A''            
     e(  7 -  7) =     15.12474  eV     1   --> A''            
     e(  8 -  8) =     15.76755  eV     1   --> A'             

 **************************************************************************

 **************************************************************************

                    xk=(   0.10000,   0.00000,   1.00000  )

     zone border point and non-symmorphic group 
     symmetry decomposition not available

 **************************************************************************

 **************************************************************************

                    xk=(   0.10000,   0.10000,   1.00000  )

     zone border point and non-symmorphic group 
     symmetry decomposition not available

 **************************************************************************

 **************************************************************************

                    xk=(   0.10000,   0.20000,   1.00000  )

     zone border point and non-symmorphic group 
     symmetry decomposition not available

 **************************************************************************

 **************************************************************************

                    xk=(   0.10000,   0.30000,   1.00000  )

     zone border point and non-symmorphic group 
     symmetry decomposition not available

 **************************************************************************

 **************************************************************************

                    xk=(   0.10000,   0.40000,   1.00000  )

     zone border point and non-symmorphic group 
     symmetry decomposition not available

 **************************************************************************

 **************************************************************************

                    xk=(   0.10000,   0.50000,   1.00000  )

     zone border point and non-symmorphic group 
     symmetry decomposition not available

 **************************************************************************

 **************************************************************************

                    xk=(   0.10000,   0.60000,   1.00000  )

     zone border point and non-symmorphic group 
     symmetry decomposition not available

 **************************************************************************

 **************************************************************************

                    xk=(   0.10000,   0.70000,   1.00000  )

     zone border point and non-symmorphic group 
     symmetry decomposition not available

 **************************************************************************

 **************************************************************************

                    xk=(   0.10000,   0.80000,   1.00000  )

     zone border point and non-symmorphic group 
     symmetry decomposition not available

 **************************************************************************

 **************************************************************************

                    xk=(   0.10000,   0.90000,   1.00000  )

     zone border point and non-symmorphic group 
     symmetry decomposition not available

 **************************************************************************

 **************************************************************************

                    xk=(   0.10000,   1.00000,   1.00000  )

     zone border point and non-symmorphic group 
     symmetry decomposition not available

 **************************************************************************

 **************************************************************************

                    xk=(   0.10000,   0.90000,   0.90000  )

     point group C_s (m)    
     there are  2 classes
     the character table:

       E     s    
A'     1.00  1.00
A''    1.00 -1.00

     the symmetry operations in each class and the name of the first element:

     E        1
                                                                 
     s        2
                                                                 

     Band symmetry, C_s (m)     point group:

     e(  1 -  1) =     -2.28526  eV     1   --> A'             
     e(  2 -  2) =     -0.75701  eV     1   --> A'             
     e(  3 -  3) =      2.90818  eV     1   --> A'             
     e(  4 -  4) =      3.47217  eV     1   --> A''            
     e(  5 -  5) =      7.00217  eV     1   --> A'             
     e(  6 -  6) =      7.77880  eV     1   --> A'             
     e(  7 -  7) =     15.08364  eV     1   --> A''            
     e(  8 -  8) =     15.17249  eV     1   --> A'             

 **************************************************************************

 **************************************************************************

                    xk=(   0.10000,   0.80000,   0.80000  )

     Band symmetry, C_s (m)     point group:

     e(  1 -  1) =     -2.21398  eV     1   --> A'             
     e(  2 -  2) =     -0.76426  eV     1   --> A'             
     e(  3 -  3) =      2.19029  eV     1   --> A'             
     e(  4 -  4) =      3.68137  eV     1   --> A''            
     e(  5 -  5) =      7.27222  eV     1   --> A'             
     e(  6 -  6) =      9.44520  eV     1   --> A'             
     e(  7 -  7) =     13.89633  eV     1   --> A''            
     e(  8 -  8) =     14.04168  eV     1   --> A'             

 **************************************************************************

 **************************************************************************

                    xk=(   0.10000,   0.70000,   0.70000  )

     Band symmetry, C_s (m)     point group:

     e(  1 -  1) =     -2.37879  eV     1   --> A'             
     e(  2 -  2) =     -0.66089  eV     1   --> A'             
     e(  3 -  3) =      1.91699  eV     1   --> A'             
     e(  4 -  4) =      4.01656  eV     1   --> A''            
     e(  5 -  5) =      7.66745  eV     1   --> A'             
     e(  6 -  6) =     11.43634  eV     1   --> A'             
     e(  7 -  7) =     12.72927  eV     1   --> A''            
     e(  8 -  8) =     12.92845  eV     1   --> A'             

 **************************************************************************

 **************************************************************************

                    xk=(   0.10000,   0.60000,   0.60000  )

     Band symmetry, C_s (m)     point group:

     e(  1 -  1) =     -2.94620  eV     1   --> A'             
     e(  2 -  2) =     -0.21676  eV     1   --> A'             
     e(  3 -  3) =      2.15590  eV     1   --> A'             
     e(  4 -  4) =      4.45093  eV     1   --> A''            
     e(  5 -  5) =      8.17254  eV     1   --> A'             
     e(  6 -  6) =     11.69162  eV     1   --> A''            
     e(  7 -  7) =     11.72542  eV     1   --> A'             
     e(  8 -  8) =     13.61237  eV     1   --> A'             

 **************************************************************************

 **************************************************************************

                    xk=(   0.10000,   0.50000,   0.50000  )

     Band symmetry, C_s (m)     point group:

     e(  1 -  1) =     -3.67877  eV     1   --> A'             
     e(  2 -  2) =      0.52527  eV     1   --> A'             
     e(  3 -  3) =      2.73996  eV     1   --> A'             
     e(  4 -  4) =      4.93764  eV     1   --> A''            
     e(  5 -  5) =      8.70975  eV     1   --> A'             
     e(  6 -  6) =     10.82349  eV     1   --> A''            
     e(  7 -  7) =     10.87968  eV     1   --> A'             
     e(  8 -  8) =     12.98839  eV     1   --> A'             

 **************************************************************************

 **************************************************************************

                    xk=(   0.10000,   0.40000,   0.40000  )

     Band symmetry, C_s (m)     point group:

     e(  1 -  1) =     -4.37725  eV     1   --> A'             
     e(  2 -  2) =      1.48440  eV     1   --> A'             
     e(  3 -  3) =      3.54167  eV     1   --> A'             
     e(  4 -  4) =      5.40612  eV     1   --> A''            
     e(  5 -  5) =      9.07783  eV     1   --> A'             
     e(  6 -  6) =     10.14730  eV     1   --> A''            
     e(  7 -  7) =     10.28168  eV     1   --> A'             
     e(  8 -  8) =     12.45871  eV     1   --> A'             

 **************************************************************************

 **************************************************************************

                    xk=(   0.10000,   0.30000,   0.30000  )

     Band symmetry, C_s (m)     point group:

     e(  1 -  1) =     -4.95995  eV     1   --> A'             
     e(  2 -  2) =      2.61561  eV     1   --> A'             
     e(  3 -  3) =      4.46803  eV     1   --> A'             
     e(  4 -  4) =      5.77294  eV     1   --> A''            
     e(  5 -  5) =      9.02918  eV     1   --> A'             
     e(  6 -  6) =      9.65604  eV     1   --> A''            
     e(  7 -  7) =      9.98815  eV     1   --> A'             
     e(  8 -  8) =     12.24585  eV     1   --> A'             

 **************************************************************************

 **************************************************************************

                    xk=(   0.10000,   0.20000,   0.20000  )

     Band symmetry, C_s (m)     point group:

     e(  1 -  1) =     -5.39135  eV     1   --> A'             
     e(  2 -  2) =      3.86810  eV     1   --> A'             
     e(  3 -  3) =      5.39739  eV     1   --> A'             
     e(  4 -  4) =      5.99011  eV     1   --> A''            
     e(  5 -  5) =      8.84378  eV     1   --> A'             
     e(  6 -  6) =      9.32645  eV     1   --> A''            
     e(  7 -  7) =      9.65731  eV     1   --> A'             
     e(  8 -  8) =     11.77301  eV     1   --> A'             

 **************************************************************************

 **************************************************************************

                    xk=(   0.10000,   0.10000,   0.10000  )

     point group C_3v (3m)  
     there are  3 classes
     the character table:

       E     2C3   3s_v 
A_1    1.00  1.00  1.00
A_2    1.00  1.00 -1.00
E      2.00 -1.00  0.00

     the symmetry operations in each class and the name of the first element:

     E        1
                                                                 
     2C3      2    3
                                                                 
     3s_v     4    5    6
                                                                 

     Band symmetry, C_3v (3m)   point group:

     e(  1 -  1) =     -5.65481  eV     1   --> A_1  L_1       
     e(  2 -  2) =      5.13370  eV     1   --> A_1  L_1       
     e(  3 -  4) =      6.08104  eV     2   --> E    L_3       
     e(  5 -  5) =      8.86576  eV     1   --> A_1  L_1       
     e(  6 -  7) =      9.13507  eV     2   --> E    L_3       
     e(  8 -  8) =     10.64619  eV     1   --> A_1  L_1       

 **************************************************************************

 **************************************************************************

                    xk=(   0.10000,   0.00000,   0.00000  )

     point group C_4v (4mm) 
     there are  5 classes
     the character table:

       E     2C4   C2    2s_v  2s_d 
A_1    1.00  1.00  1.00  1.00  1.00
A_2    1.00  1.00  1.00 -1.00 -1.00
B_1    1.00 -1.00  1.00  1.00 -1.00
B_2    1.00 -1.00  1.00 -1.00  1.00
E      2.00  0.00 -2.00  0.00  0.00

     the symmetry operations in each class and the name of the first element:

     E        1
                                                                 
     2C4      3    4
                                                                 
     C2       2
                                                                 
     2s_v     5    6
                                                                 
     2s_d     7    8
                                                                 

     Band symmetry, C_4v (4mm)  point group:

     e(  1 -  1) =     -5.74419  eV     1   --> A_1  G_1 D_1   
     e(  2 -  2) =      6.01309  eV     1   --> B_2  G_4 D_2'  
     e(  3 -  4) =      6.10329  eV     2   --> E    G_5 D_5   
     e(  5 -  5) =      8.72286  eV     1   --> A_1  G_1 D_1   
     e(  6 -  7) =      9.07260  eV     2   --> E    G_5 D_5   
     e(  8 -  8) =     10.02122  eV     1   --> B_2  G_4 D_2'  

 **************************************************************************

     BANDS        :      0.22s CPU      0.25s WALL


   This run was terminated on:  11:52:19  23Feb2023            

=------------------------------------------------------------------------------=
   JOB DONE.
=------------------------------------------------------------------------------=
