
     Program BANDS v.6.7MaX starts on 22Mar2023 at 17: 6:48 

     This program is part of the open-source Quantum ESPRESSO suite
     for quantum simulation of materials; please cite
         "P. Giannozzi et al., J. Phys.:Condens. Matter 21 395502 (2009);
         "P. Giannozzi et al., J. Phys.:Condens. Matter 29 465901 (2017);
          URL http://www.quantum-espresso.org", 
     in publications or presentations arising from this work. More details at
     http://www.quantum-espresso.org/quote

     Parallel version (MPI), running on     1 processors

     MPI processes distributed on     1 nodes

     Reading xml data from directory:

     tmp/silicon.save/

     IMPORTANT: XC functional enforced from input :
     Exchange-correlation= PZ
                           (   1   1   0   0   0   0   0)
     Any further DFT definition will be discarded
     Please, verify this is what you really want


     G-vector sticks info
     --------------------
     sticks:   dense  smooth     PW     G-vecs:    dense   smooth      PW
     Sum         559     559    169                 8609     8609    1471

     Reading collected, re-writing distributed wavefunctions
     high-symmetry point:  0.1000 0.8000 0.0000   x coordinate   0.0000
     high-symmetry point:  0.1000 0.8000 1.0000   x coordinate   1.0000

     Plottable bands (eV) written to file si_bands.dat.gnu
     Bands written to file si_bands.dat

 **************************************************************************

                    xk=(   0.10000,   0.80000,   0.00000  )

     point group C_s (m)    
     there are  2 classes
     the character table:

       E     s    
A'     1.00  1.00
A''    1.00 -1.00

     the symmetry operations in each class and the name of the first element:

     E        1
                                                                 
     s        2
                                                                 

     Band symmetry, C_s (m)     point group:

     e(  1 -  1) =     -3.97330  eV     1   --> A'             
     e(  2 -  2) =     -1.28616  eV     1   --> A''            
     e(  3 -  3) =      2.16832  eV     1   --> A'             
     e(  4 -  4) =      2.25359  eV     1   --> A''            
     e(  5 -  5) =      5.68732  eV     1   --> A'             
     e(  6 -  6) =      6.37037  eV     1   --> A''            
     e(  7 -  7) =     11.91059  eV     1   --> A''            
     e(  8 -  8) =     12.44744  eV     1   --> A'             

 **************************************************************************

 **************************************************************************

                    xk=(   0.10000,   0.80000,   0.02000  )

     point group C_1 (1)    
     there are  1 classes
     the character table:

       E    
A      1.00

     the symmetry operations in each class and the name of the first element:

     E        1
                                                                 

     Band symmetry, C_1 (1)     point group:

     e(  1 -  1) =     -3.97234  eV     1   --> A              
     e(  2 -  2) =     -1.28709  eV     1   --> A              
     e(  3 -  3) =      2.14795  eV     1   --> A              
     e(  4 -  4) =      2.26928  eV     1   --> A              
     e(  5 -  5) =      5.68925  eV     1   --> A              
     e(  6 -  6) =      6.38207  eV     1   --> A              
     e(  7 -  7) =     11.90988  eV     1   --> A              
     e(  8 -  8) =     12.42240  eV     1   --> A              

 **************************************************************************

 **************************************************************************

                    xk=(   0.10000,   0.80000,   0.04000  )

     Band symmetry, C_1 (1)     point group:

     e(  1 -  1) =     -3.96953  eV     1   --> A              
     e(  2 -  2) =     -1.28988  eV     1   --> A              
     e(  3 -  3) =      2.10608  eV     1   --> A              
     e(  4 -  4) =      2.29717  eV     1   --> A              
     e(  5 -  5) =      5.69551  eV     1   --> A              
     e(  6 -  6) =      6.41630  eV     1   --> A              
     e(  7 -  7) =     11.90706  eV     1   --> A              
     e(  8 -  8) =     12.35101  eV     1   --> A              

 **************************************************************************

 **************************************************************************

                    xk=(   0.10000,   0.80000,   0.06000  )

     Band symmetry, C_1 (1)     point group:

     e(  1 -  1) =     -3.96485  eV     1   --> A              
     e(  2 -  2) =     -1.29452  eV     1   --> A              
     e(  3 -  3) =      2.05680  eV     1   --> A              
     e(  4 -  4) =      2.32342  eV     1   --> A              
     e(  5 -  5) =      5.70777  eV     1   --> A              
     e(  6 -  6) =      6.47131  eV     1   --> A              
     e(  7 -  7) =     11.90032  eV     1   --> A              
     e(  8 -  8) =     12.24325  eV     1   --> A              

 **************************************************************************

 **************************************************************************

                    xk=(   0.10000,   0.80000,   0.08000  )

     Band symmetry, C_1 (1)     point group:

     e(  1 -  1) =     -3.95832  eV     1   --> A              
     e(  2 -  2) =     -1.30106  eV     1   --> A              
     e(  3 -  3) =      2.00391  eV     1   --> A              
     e(  4 -  4) =      2.34459  eV     1   --> A              
     e(  5 -  5) =      5.72800  eV     1   --> A              
     e(  6 -  6) =      6.54468  eV     1   --> A              
     e(  7 -  7) =     11.88237  eV     1   --> A              
     e(  8 -  8) =     12.11600  eV     1   --> A              

 **************************************************************************

 **************************************************************************

                    xk=(   0.10000,   0.80000,   0.10000  )

     point group C_s (m)    
     there are  2 classes
     the character table:

       E     s    
A'     1.00  1.00
A''    1.00 -1.00

     the symmetry operations in each class and the name of the first element:

     E        1
                                                                 
     s        2
                                                                 

     Band symmetry, C_s (m)     point group:

     e(  1 -  1) =     -3.94996  eV     1   --> A'             
     e(  2 -  2) =     -1.30946  eV     1   --> A'             
     e(  3 -  3) =      1.94903  eV     1   --> A'             
     e(  4 -  4) =      2.35965  eV     1   --> A''            
     e(  5 -  5) =      5.75810  eV     1   --> A'             
     e(  6 -  6) =      6.63406  eV     1   --> A'             
     e(  7 -  7) =     11.82285  eV     1   --> A'             
     e(  8 -  8) =     12.00801  eV     1   --> A''            

 **************************************************************************

 **************************************************************************

                    xk=(   0.10000,   0.80000,   0.12000  )

     point group C_1 (1)    
     there are  1 classes
     the character table:

       E    
A      1.00

     the symmetry operations in each class and the name of the first element:

     E        1
                                                                 

     Band symmetry, C_1 (1)     point group:

     e(  1 -  1) =     -3.93981  eV     1   --> A              
     e(  2 -  2) =     -1.31975  eV     1   --> A              
     e(  3 -  3) =      1.89316  eV     1   --> A              
     e(  4 -  4) =      2.36834  eV     1   --> A              
     e(  5 -  5) =      5.79943  eV     1   --> A              
     e(  6 -  6) =      6.73728  eV     1   --> A              
     e(  7 -  7) =     11.68572  eV     1   --> A              
     e(  8 -  8) =     11.96172  eV     1   --> A              

 **************************************************************************

 **************************************************************************

                    xk=(   0.10000,   0.80000,   0.14000  )

     Band symmetry, C_1 (1)     point group:

     e(  1 -  1) =     -3.92795  eV     1   --> A              
     e(  2 -  2) =     -1.33196  eV     1   --> A              
     e(  3 -  3) =      1.83707  eV     1   --> A              
     e(  4 -  4) =      2.37081  eV     1   --> A              
     e(  5 -  5) =      5.85282  eV     1   --> A              
     e(  6 -  6) =      6.85249  eV     1   --> A              
     e(  7 -  7) =     11.50592  eV     1   --> A              
     e(  8 -  8) =     11.94636  eV     1   --> A              

 **************************************************************************

 **************************************************************************

                    xk=(   0.10000,   0.80000,   0.16000  )

     Band symmetry, C_1 (1)     point group:

     e(  1 -  1) =     -3.91437  eV     1   --> A              
     e(  2 -  2) =     -1.34607  eV     1   --> A              
     e(  3 -  3) =      1.78135  eV     1   --> A              
     e(  4 -  4) =      2.36757  eV     1   --> A              
     e(  5 -  5) =      5.91866  eV     1   --> A              
     e(  6 -  6) =      6.97829  eV     1   --> A              
     e(  7 -  7) =     11.30966  eV     1   --> A              
     e(  8 -  8) =     11.93932  eV     1   --> A              

 **************************************************************************

 **************************************************************************

                    xk=(   0.10000,   0.80000,   0.18000  )

     Band symmetry, C_1 (1)     point group:

     e(  1 -  1) =     -3.89917  eV     1   --> A              
     e(  2 -  2) =     -1.36207  eV     1   --> A              
     e(  3 -  3) =      1.72647  eV     1   --> A              
     e(  4 -  4) =      2.35935  eV     1   --> A              
     e(  5 -  5) =      5.99692  eV     1   --> A              
     e(  6 -  6) =      7.11335  eV     1   --> A              
     e(  7 -  7) =     11.10484  eV     1   --> A              
     e(  8 -  8) =     11.93492  eV     1   --> A              

 **************************************************************************

 **************************************************************************

                    xk=(   0.10000,   0.80000,   0.20000  )

     Band symmetry, C_1 (1)     point group:

     e(  1 -  1) =     -3.88241  eV     1   --> A              
     e(  2 -  2) =     -1.37995  eV     1   --> A              
     e(  3 -  3) =      1.67280  eV     1   --> A              
     e(  4 -  4) =      2.34703  eV     1   --> A              
     e(  5 -  5) =      6.08728  eV     1   --> A              
     e(  6 -  6) =      7.25673  eV     1   --> A              
     e(  7 -  7) =     10.89484  eV     1   --> A              
     e(  8 -  8) =     11.93135  eV     1   --> A              

 **************************************************************************

 **************************************************************************

                    xk=(   0.10000,   0.80000,   0.22000  )

     Band symmetry, C_1 (1)     point group:

     e(  1 -  1) =     -3.86414  eV     1   --> A              
     e(  2 -  2) =     -1.39961  eV     1   --> A              
     e(  3 -  3) =      1.62060  eV     1   --> A              
     e(  4 -  4) =      2.33164  eV     1   --> A              
     e(  5 -  5) =      6.18922  eV     1   --> A              
     e(  6 -  6) =      7.40767  eV     1   --> A              
     e(  7 -  7) =     10.68162  eV     1   --> A              
     e(  8 -  8) =     11.92796  eV     1   --> A              

 **************************************************************************

 **************************************************************************

                    xk=(   0.10000,   0.80000,   0.24000  )

     Band symmetry, C_1 (1)     point group:

     e(  1 -  1) =     -3.84447  eV     1   --> A              
     e(  2 -  2) =     -1.42102  eV     1   --> A              
     e(  3 -  3) =      1.57004  eV     1   --> A              
     e(  4 -  4) =      2.31421  eV     1   --> A              
     e(  5 -  5) =      6.30205  eV     1   --> A              
     e(  6 -  6) =      7.56548  eV     1   --> A              
     e(  7 -  7) =     10.46651  eV     1   --> A              
     e(  8 -  8) =     11.92434  eV     1   --> A              

 **************************************************************************

 **************************************************************************

                    xk=(   0.10000,   0.80000,   0.26000  )

     Band symmetry, C_1 (1)     point group:

     e(  1 -  1) =     -3.82350  eV     1   --> A              
     e(  2 -  2) =     -1.44408  eV     1   --> A              
     e(  3 -  3) =      1.52125  eV     1   --> A              
     e(  4 -  4) =      2.29580  eV     1   --> A              
     e(  5 -  5) =      6.42504  eV     1   --> A              
     e(  6 -  6) =      7.72955  eV     1   --> A              
     e(  7 -  7) =     10.25049  eV     1   --> A              
     e(  8 -  8) =     11.91987  eV     1   --> A              

 **************************************************************************

 **************************************************************************

                    xk=(   0.10000,   0.80000,   0.28000  )

     Band symmetry, C_1 (1)     point group:

     e(  1 -  1) =     -3.80134  eV     1   --> A              
     e(  2 -  2) =     -1.46867  eV     1   --> A              
     e(  3 -  3) =      1.47426  eV     1   --> A              
     e(  4 -  4) =      2.27740  eV     1   --> A              
     e(  5 -  5) =      6.55745  eV     1   --> A              
     e(  6 -  6) =      7.89938  eV     1   --> A              
     e(  7 -  7) =     10.03413  eV     1   --> A              
     e(  8 -  8) =     11.91395  eV     1   --> A              

 **************************************************************************

 **************************************************************************

                    xk=(   0.10000,   0.80000,   0.30000  )

     Band symmetry, C_1 (1)     point group:

     e(  1 -  1) =     -3.77811  eV     1   --> A              
     e(  2 -  2) =     -1.49464  eV     1   --> A              
     e(  3 -  3) =      1.42911  eV     1   --> A              
     e(  4 -  4) =      2.25995  eV     1   --> A              
     e(  5 -  5) =      6.69861  eV     1   --> A              
     e(  6 -  6) =      8.07444  eV     1   --> A              
     e(  7 -  7) =      9.81817  eV     1   --> A              
     e(  8 -  8) =     11.90653  eV     1   --> A              

 **************************************************************************

 **************************************************************************

                    xk=(   0.10000,   0.80000,   0.32000  )

     Band symmetry, C_1 (1)     point group:

     e(  1 -  1) =     -3.75395  eV     1   --> A              
     e(  2 -  2) =     -1.52185  eV     1   --> A              
     e(  3 -  3) =      1.38578  eV     1   --> A              
     e(  4 -  4) =      2.24424  eV     1   --> A              
     e(  5 -  5) =      6.84769  eV     1   --> A              
     e(  6 -  6) =      8.25442  eV     1   --> A              
     e(  7 -  7) =      9.60326  eV     1   --> A              
     e(  8 -  8) =     11.89619  eV     1   --> A              

 **************************************************************************

 **************************************************************************

                    xk=(   0.10000,   0.80000,   0.34000  )

     Band symmetry, C_1 (1)     point group:

     e(  1 -  1) =     -3.72896  eV     1   --> A              
     e(  2 -  2) =     -1.55007  eV     1   --> A              
     e(  3 -  3) =      1.34429  eV     1   --> A              
     e(  4 -  4) =      2.23099  eV     1   --> A              
     e(  5 -  5) =      7.00425  eV     1   --> A              
     e(  6 -  6) =      8.43892  eV     1   --> A              
     e(  7 -  7) =      9.38971  eV     1   --> A              
     e(  8 -  8) =     11.88123  eV     1   --> A              

 **************************************************************************

 **************************************************************************

                    xk=(   0.10000,   0.80000,   0.36000  )

     Band symmetry, C_1 (1)     point group:

     e(  1 -  1) =     -3.70335  eV     1   --> A              
     e(  2 -  2) =     -1.57912  eV     1   --> A              
     e(  3 -  3) =      1.30462  eV     1   --> A              
     e(  4 -  4) =      2.22075  eV     1   --> A              
     e(  5 -  5) =      7.16755  eV     1   --> A              
     e(  6 -  6) =      8.62739  eV     1   --> A              
     e(  7 -  7) =      9.17824  eV     1   --> A              
     e(  8 -  8) =     11.85722  eV     1   --> A              

 **************************************************************************

 **************************************************************************

                    xk=(   0.10000,   0.80000,   0.38000  )

     Band symmetry, C_1 (1)     point group:

     e(  1 -  1) =     -3.67723  eV     1   --> A              
     e(  2 -  2) =     -1.60876  eV     1   --> A              
     e(  3 -  3) =      1.26682  eV     1   --> A              
     e(  4 -  4) =      2.21395  eV     1   --> A              
     e(  5 -  5) =      7.33704  eV     1   --> A              
     e(  6 -  6) =      8.81704  eV     1   --> A              
     e(  7 -  7) =      8.97170  eV     1   --> A              
     e(  8 -  8) =     11.81548  eV     1   --> A              

 **************************************************************************

 **************************************************************************

                    xk=(   0.10000,   0.80000,   0.40000  )

     Band symmetry, C_1 (1)     point group:

     e(  1 -  1) =     -3.65081  eV     1   --> A              
     e(  2 -  2) =     -1.63875  eV     1   --> A              
     e(  3 -  3) =      1.23098  eV     1   --> A              
     e(  4 -  4) =      2.21087  eV     1   --> A              
     e(  5 -  5) =      7.51220  eV     1   --> A              
     e(  6 -  6) =      8.75765  eV     1   --> A              
     e(  7 -  7) =      9.02060  eV     1   --> A              
     e(  8 -  8) =     11.73752  eV     1   --> A              

 **************************************************************************

 **************************************************************************

                    xk=(   0.10000,   0.80000,   0.42000  )

     Band symmetry, C_1 (1)     point group:

     e(  1 -  1) =     -3.62426  eV     1   --> A              
     e(  2 -  2) =     -1.66883  eV     1   --> A              
     e(  3 -  3) =      1.19721  eV     1   --> A              
     e(  4 -  4) =      2.21165  eV     1   --> A              
     e(  5 -  5) =      7.69232  eV     1   --> A              
     e(  6 -  6) =      8.55540  eV     1   --> A              
     e(  7 -  7) =      9.21890  eV     1   --> A              
     e(  8 -  8) =     11.60562  eV     1   --> A              

 **************************************************************************

 **************************************************************************

                    xk=(   0.10000,   0.80000,   0.44000  )

     Band symmetry, C_1 (1)     point group:

     e(  1 -  1) =     -3.59777  eV     1   --> A              
     e(  2 -  2) =     -1.69875  eV     1   --> A              
     e(  3 -  3) =      1.16567  eV     1   --> A              
     e(  4 -  4) =      2.21632  eV     1   --> A              
     e(  5 -  5) =      7.87630  eV     1   --> A              
     e(  6 -  6) =      8.35627  eV     1   --> A              
     e(  7 -  7) =      9.42126  eV     1   --> A              
     e(  8 -  8) =     11.42915  eV     1   --> A              

 **************************************************************************

 **************************************************************************

                    xk=(   0.10000,   0.80000,   0.46000  )

     Band symmetry, C_1 (1)     point group:

     e(  1 -  1) =     -3.57157  eV     1   --> A              
     e(  2 -  2) =     -1.72827  eV     1   --> A              
     e(  3 -  3) =      1.13653  eV     1   --> A              
     e(  4 -  4) =      2.22477  eV     1   --> A              
     e(  5 -  5) =      8.05253  eV     1   --> A              
     e(  6 -  6) =      8.17284  eV     1   --> A              
     e(  7 -  7) =      9.62621  eV     1   --> A              
     e(  8 -  8) =     11.23038  eV     1   --> A              

 **************************************************************************

 **************************************************************************

                    xk=(   0.10000,   0.80000,   0.48000  )

     Band symmetry, C_1 (1)     point group:

     e(  1 -  1) =     -3.54586  eV     1   --> A              
     e(  2 -  2) =     -1.75714  eV     1   --> A              
     e(  3 -  3) =      1.11004  eV     1   --> A              
     e(  4 -  4) =      2.23681  eV     1   --> A              
     e(  5 -  5) =      7.95585  eV     1   --> A              
     e(  6 -  6) =      8.27053  eV     1   --> A              
     e(  7 -  7) =      9.83281  eV     1   --> A              
     e(  8 -  8) =     11.02264  eV     1   --> A              

 **************************************************************************

 **************************************************************************

                    xk=(   0.10000,   0.80000,   0.50000  )

     Band symmetry, C_1 (1)     point group:

     e(  1 -  1) =     -3.52084  eV     1   --> A              
     e(  2 -  2) =     -1.78512  eV     1   --> A              
     e(  3 -  3) =      1.08644  eV     1   --> A              
     e(  4 -  4) =      2.25211  eV     1   --> A              
     e(  5 -  5) =      7.77033  eV     1   --> A              
     e(  6 -  6) =      8.46529  eV     1   --> A              
     e(  7 -  7) =     10.03911  eV     1   --> A              
     e(  8 -  8) =     10.81384  eV     1   --> A              

 **************************************************************************

 **************************************************************************

                    xk=(   0.10000,   0.80000,   0.52000  )

     Band symmetry, C_1 (1)     point group:

     e(  1 -  1) =     -3.49668  eV     1   --> A              
     e(  2 -  2) =     -1.81197  eV     1   --> A              
     e(  3 -  3) =      1.06598  eV     1   --> A              
     e(  4 -  4) =      2.27030  eV     1   --> A              
     e(  5 -  5) =      7.58744  eV     1   --> A              
     e(  6 -  6) =      8.66579  eV     1   --> A              
     e(  7 -  7) =     10.23722  eV     1   --> A              
     e(  8 -  8) =     10.61379  eV     1   --> A              

 **************************************************************************

 **************************************************************************

                    xk=(   0.10000,   0.80000,   0.54000  )

     Band symmetry, C_1 (1)     point group:

     e(  1 -  1) =     -3.47361  eV     1   --> A              
     e(  2 -  2) =     -1.83749  eV     1   --> A              
     e(  3 -  3) =      1.04893  eV     1   --> A              
     e(  4 -  4) =      2.29089  eV     1   --> A              
     e(  5 -  5) =      7.40961  eV     1   --> A              
     e(  6 -  6) =      8.86962  eV     1   --> A              
     e(  7 -  7) =     10.31845  eV     1   --> A              
     e(  8 -  8) =     10.53198  eV     1   --> A              

 **************************************************************************

 **************************************************************************

                    xk=(   0.10000,   0.80000,   0.56000  )

     Band symmetry, C_1 (1)     point group:

     e(  1 -  1) =     -3.45181  eV     1   --> A              
     e(  2 -  2) =     -1.86150  eV     1   --> A              
     e(  3 -  3) =      1.03556  eV     1   --> A              
     e(  4 -  4) =      2.31332  eV     1   --> A              
     e(  5 -  5) =      7.23773  eV     1   --> A              
     e(  6 -  6) =      9.07594  eV     1   --> A              
     e(  7 -  7) =     10.14845  eV     1   --> A              
     e(  8 -  8) =     10.70281  eV     1   --> A              

 **************************************************************************

 **************************************************************************

                    xk=(   0.10000,   0.80000,   0.58000  )

     Band symmetry, C_1 (1)     point group:

     e(  1 -  1) =     -3.43144  eV     1   --> A              
     e(  2 -  2) =     -1.88388  eV     1   --> A              
     e(  3 -  3) =      1.02612  eV     1   --> A              
     e(  4 -  4) =      2.33697  eV     1   --> A              
     e(  5 -  5) =      7.07248  eV     1   --> A              
     e(  6 -  6) =      9.28288  eV     1   --> A              
     e(  7 -  7) =      9.94923  eV     1   --> A              
     e(  8 -  8) =     10.90358  eV     1   --> A              

 **************************************************************************

 **************************************************************************

                    xk=(   0.10000,   0.80000,   0.60000  )

     Band symmetry, C_1 (1)     point group:

     e(  1 -  1) =     -3.41266  eV     1   --> A              
     e(  2 -  2) =     -1.90447  eV     1   --> A              
     e(  3 -  3) =      1.02086  eV     1   --> A              
     e(  4 -  4) =      2.36112  eV     1   --> A              
     e(  5 -  5) =      6.91471  eV     1   --> A              
     e(  6 -  6) =      9.48049  eV     1   --> A              
     e(  7 -  7) =      9.75976  eV     1   --> A              
     e(  8 -  8) =     11.10129  eV     1   --> A              

 **************************************************************************

 **************************************************************************

                    xk=(   0.10000,   0.80000,   0.62000  )

     Band symmetry, C_1 (1)     point group:

     e(  1 -  1) =     -3.39554  eV     1   --> A              
     e(  2 -  2) =     -1.92319  eV     1   --> A              
     e(  3 -  3) =      1.02001  eV     1   --> A              
     e(  4 -  4) =      2.38499  eV     1   --> A              
     e(  5 -  5) =      6.76515  eV     1   --> A              
     e(  6 -  6) =      9.50155  eV     1   --> A              
     e(  7 -  7) =      9.75028  eV     1   --> A              
     e(  8 -  8) =     11.28495  eV     1   --> A              

 **************************************************************************

 **************************************************************************

                    xk=(   0.10000,   0.80000,   0.64000  )

     Band symmetry, C_1 (1)     point group:

     e(  1 -  1) =     -3.38020  eV     1   --> A              
     e(  2 -  2) =     -1.94005  eV     1   --> A              
     e(  3 -  3) =      1.02374  eV     1   --> A              
     e(  4 -  4) =      2.40772  eV     1   --> A              
     e(  5 -  5) =      6.62465  eV     1   --> A              
     e(  6 -  6) =      9.31908  eV     1   --> A              
     e(  7 -  7) =      9.94833  eV     1   --> A              
     e(  8 -  8) =     11.44114  eV     1   --> A              

 **************************************************************************

 **************************************************************************

                    xk=(   0.10000,   0.80000,   0.66000  )

     Band symmetry, C_1 (1)     point group:

     e(  1 -  1) =     -3.36666  eV     1   --> A              
     e(  2 -  2) =     -1.95502  eV     1   --> A              
     e(  3 -  3) =      1.03226  eV     1   --> A              
     e(  4 -  4) =      2.42838  eV     1   --> A              
     e(  5 -  5) =      6.49406  eV     1   --> A              
     e(  6 -  6) =      9.12471  eV     1   --> A              
     e(  7 -  7) =     10.16249  eV     1   --> A              
     e(  8 -  8) =     11.55550  eV     1   --> A              

 **************************************************************************

 **************************************************************************

                    xk=(   0.10000,   0.80000,   0.68000  )

     Band symmetry, C_1 (1)     point group:

     e(  1 -  1) =     -3.35491  eV     1   --> A              
     e(  2 -  2) =     -1.96814  eV     1   --> A              
     e(  3 -  3) =      1.04567  eV     1   --> A              
     e(  4 -  4) =      2.44600  eV     1   --> A              
     e(  5 -  5) =      6.37433  eV     1   --> A              
     e(  6 -  6) =      8.93110  eV     1   --> A              
     e(  7 -  7) =     10.38000  eV     1   --> A              
     e(  8 -  8) =     11.62560  eV     1   --> A              

 **************************************************************************

 **************************************************************************

                    xk=(   0.10000,   0.80000,   0.70000  )

     Band symmetry, C_1 (1)     point group:

     e(  1 -  1) =     -3.34494  eV     1   --> A              
     e(  2 -  2) =     -1.97951  eV     1   --> A              
     e(  3 -  3) =      1.06409  eV     1   --> A              
     e(  4 -  4) =      2.45958  eV     1   --> A              
     e(  5 -  5) =      6.26647  eV     1   --> A              
     e(  6 -  6) =      8.73998  eV     1   --> A              
     e(  7 -  7) =     10.59869  eV     1   --> A              
     e(  8 -  8) =     11.66418  eV     1   --> A              

 **************************************************************************

 **************************************************************************

                    xk=(   0.10000,   0.80000,   0.72000  )

     Band symmetry, C_1 (1)     point group:

     e(  1 -  1) =     -3.33666  eV     1   --> A              
     e(  2 -  2) =     -1.98921  eV     1   --> A              
     e(  3 -  3) =      1.08757  eV     1   --> A              
     e(  4 -  4) =      2.46812  eV     1   --> A              
     e(  5 -  5) =      6.17149  eV     1   --> A              
     e(  6 -  6) =      8.55216  eV     1   --> A              
     e(  7 -  7) =     10.81758  eV     1   --> A              
     e(  8 -  8) =     11.68462  eV     1   --> A              

 **************************************************************************

 **************************************************************************

                    xk=(   0.10000,   0.80000,   0.74000  )

     Band symmetry, C_1 (1)     point group:

     e(  1 -  1) =     -3.32991  eV     1   --> A              
     e(  2 -  2) =     -1.99735  eV     1   --> A              
     e(  3 -  3) =      1.11613  eV     1   --> A              
     e(  4 -  4) =      2.47068  eV     1   --> A              
     e(  5 -  5) =      6.09039  eV     1   --> A              
     e(  6 -  6) =      8.36795  eV     1   --> A              
     e(  7 -  7) =     11.03566  eV     1   --> A              
     e(  8 -  8) =     11.69554  eV     1   --> A              

 **************************************************************************

 **************************************************************************

                    xk=(   0.10000,   0.80000,   0.76000  )

     Band symmetry, C_1 (1)     point group:

     e(  1 -  1) =     -3.32462  eV     1   --> A              
     e(  2 -  2) =     -2.00410  eV     1   --> A              
     e(  3 -  3) =      1.14973  eV     1   --> A              
     e(  4 -  4) =      2.46643  eV     1   --> A              
     e(  5 -  5) =      6.02392  eV     1   --> A              
     e(  6 -  6) =      8.18764  eV     1   --> A              
     e(  7 -  7) =     11.25109  eV     1   --> A              
     e(  8 -  8) =     11.70230  eV     1   --> A              

 **************************************************************************

 **************************************************************************

                    xk=(   0.10000,   0.80000,   0.78000  )

     Band symmetry, C_1 (1)     point group:

     e(  1 -  1) =     -3.32061  eV     1   --> A              
     e(  2 -  2) =     -2.00961  eV     1   --> A              
     e(  3 -  3) =      1.18829  eV     1   --> A              
     e(  4 -  4) =      2.45471  eV     1   --> A              
     e(  5 -  5) =      5.97279  eV     1   --> A              
     e(  6 -  6) =      8.01154  eV     1   --> A              
     e(  7 -  7) =     11.45921  eV     1   --> A              
     e(  8 -  8) =     11.71098  eV     1   --> A              

 **************************************************************************

 **************************************************************************

                    xk=(   0.10000,   0.80000,   0.80000  )

     point group C_s (m)    
     there are  2 classes
     the character table:

       E     s    
A'     1.00  1.00
A''    1.00 -1.00

     the symmetry operations in each class and the name of the first element:

     E        1
                                                                 
     s        2
                                                                 

     Band symmetry, C_s (m)     point group:

     e(  1 -  1) =     -3.31771  eV     1   --> A'             
     e(  2 -  2) =     -2.01404  eV     1   --> A'             
     e(  3 -  3) =      1.23167  eV     1   --> A'             
     e(  4 -  4) =      2.43510  eV     1   --> A''            
     e(  5 -  5) =      5.93746  eV     1   --> A'             
     e(  6 -  6) =      7.83992  eV     1   --> A'             
     e(  7 -  7) =     11.62673  eV     1   --> A'             
     e(  8 -  8) =     11.75504  eV     1   --> A''            

 **************************************************************************

 **************************************************************************

                    xk=(   0.10000,   0.80000,   0.82000  )

     point group C_1 (1)    
     there are  1 classes
     the character table:

       E    
A      1.00

     the symmetry operations in each class and the name of the first element:

     E        1
                                                                 

     Band symmetry, C_1 (1)     point group:

     e(  1 -  1) =     -3.31575  eV     1   --> A              
     e(  2 -  2) =     -2.01757  eV     1   --> A              
     e(  3 -  3) =      1.27968  eV     1   --> A              
     e(  4 -  4) =      2.40742  eV     1   --> A              
     e(  5 -  5) =      5.91796  eV     1   --> A              
     e(  6 -  6) =      7.67309  eV     1   --> A              
     e(  7 -  7) =     11.67130  eV     1   --> A              
     e(  8 -  8) =     11.91574  eV     1   --> A              

 **************************************************************************

 **************************************************************************

                    xk=(   0.10000,   0.80000,   0.84000  )

     Band symmetry, C_1 (1)     point group:

     e(  1 -  1) =     -3.31456  eV     1   --> A              
     e(  2 -  2) =     -2.02035  eV     1   --> A              
     e(  3 -  3) =      1.33206  eV     1   --> A              
     e(  4 -  4) =      2.37182  eV     1   --> A              
     e(  5 -  5) =      5.91421  eV     1   --> A              
     e(  6 -  6) =      7.51137  eV     1   --> A              
     e(  7 -  7) =     11.67664  eV     1   --> A              
     e(  8 -  8) =     12.10757  eV     1   --> A              

 **************************************************************************

 **************************************************************************

                    xk=(   0.10000,   0.80000,   0.86000  )

     Band symmetry, C_1 (1)     point group:

     e(  1 -  1) =     -3.31393  eV     1   --> A              
     e(  2 -  2) =     -2.02246  eV     1   --> A              
     e(  3 -  3) =      1.38848  eV     1   --> A              
     e(  4 -  4) =      2.32875  eV     1   --> A              
     e(  5 -  5) =      5.92585  eV     1   --> A              
     e(  6 -  6) =      7.35522  eV     1   --> A              
     e(  7 -  7) =     11.67644  eV     1   --> A              
     e(  8 -  8) =     12.29419  eV     1   --> A              

 **************************************************************************

 **************************************************************************

                    xk=(   0.10000,   0.80000,   0.88000  )

     Band symmetry, C_1 (1)     point group:

     e(  1 -  1) =     -3.31374  eV     1   --> A              
     e(  2 -  2) =     -2.02406  eV     1   --> A              
     e(  3 -  3) =      1.44855  eV     1   --> A              
     e(  4 -  4) =      2.27889  eV     1   --> A              
     e(  5 -  5) =      5.95208  eV     1   --> A              
     e(  6 -  6) =      7.20502  eV     1   --> A              
     e(  7 -  7) =     11.67475  eV     1   --> A              
     e(  8 -  8) =     12.46694  eV     1   --> A              

 **************************************************************************

 **************************************************************************

                    xk=(   0.10000,   0.80000,   0.90000  )

     Band symmetry, C_1 (1)     point group:

     e(  1 -  1) =     -3.31383  eV     1   --> A              
     e(  2 -  2) =     -2.02524  eV     1   --> A              
     e(  3 -  3) =      1.51173  eV     1   --> A              
     e(  4 -  4) =      2.22318  eV     1   --> A              
     e(  5 -  5) =      5.99183  eV     1   --> A              
     e(  6 -  6) =      7.06152  eV     1   --> A              
     e(  7 -  7) =     11.67269  eV     1   --> A              
     e(  8 -  8) =     12.61973  eV     1   --> A              

 **************************************************************************

 **************************************************************************

                    xk=(   0.10000,   0.80000,   0.92000  )

     Band symmetry, C_1 (1)     point group:

     e(  1 -  1) =     -3.31409  eV     1   --> A              
     e(  2 -  2) =     -2.02609  eV     1   --> A              
     e(  3 -  3) =      1.57734  eV     1   --> A              
     e(  4 -  4) =      2.16279  eV     1   --> A              
     e(  5 -  5) =      6.04355  eV     1   --> A              
     e(  6 -  6) =      6.92580  eV     1   --> A              
     e(  7 -  7) =     11.67065  eV     1   --> A              
     e(  8 -  8) =     12.74650  eV     1   --> A              

 **************************************************************************

 **************************************************************************

                    xk=(   0.10000,   0.80000,   0.94000  )

     Band symmetry, C_1 (1)     point group:

     e(  1 -  1) =     -3.31440  eV     1   --> A              
     e(  2 -  2) =     -2.02670  eV     1   --> A              
     e(  3 -  3) =      1.64433  eV     1   --> A              
     e(  4 -  4) =      2.09926  eV     1   --> A              
     e(  5 -  5) =      6.10508  eV     1   --> A              
     e(  6 -  6) =      6.79951  eV     1   --> A              
     e(  7 -  7) =     11.66890  eV     1   --> A              
     e(  8 -  8) =     12.84311  eV     1   --> A              

 **************************************************************************

 **************************************************************************

                    xk=(   0.10000,   0.80000,   0.96000  )

     Band symmetry, C_1 (1)     point group:

     e(  1 -  1) =     -3.31468  eV     1   --> A              
     e(  2 -  2) =     -2.02710  eV     1   --> A              
     e(  3 -  3) =      1.71071  eV     1   --> A              
     e(  4 -  4) =      2.03500  eV     1   --> A              
     e(  5 -  5) =      6.17219  eV     1   --> A              
     e(  6 -  6) =      6.68646  eV     1   --> A              
     e(  7 -  7) =     11.66762  eV     1   --> A              
     e(  8 -  8) =     12.90889  eV     1   --> A              

 **************************************************************************

 **************************************************************************

                    xk=(   0.10000,   0.80000,   0.98000  )

     Band symmetry, C_1 (1)     point group:

     e(  1 -  1) =     -3.31487  eV     1   --> A              
     e(  2 -  2) =     -2.02732  eV     1   --> A              
     e(  3 -  3) =      1.77081  eV     1   --> A              
     e(  4 -  4) =      1.97604  eV     1   --> A              
     e(  5 -  5) =      6.23447  eV     1   --> A              
     e(  6 -  6) =      6.59674  eV     1   --> A              
     e(  7 -  7) =     11.66688  eV     1   --> A              
     e(  8 -  8) =     12.94658  eV     1   --> A              

 **************************************************************************

 **************************************************************************

                    xk=(   0.10000,   0.80000,   1.00000  )

     zone border point and non-symmorphic group 
     symmetry decomposition not available

 **************************************************************************

     BANDS        :      0.19s CPU      0.21s WALL


   This run was terminated on:  17: 6:48  22Mar2023            

=------------------------------------------------------------------------------=
   JOB DONE.
=------------------------------------------------------------------------------=
