
     Program BANDS v.6.7MaX starts on 22Mar2023 at 13:13:10 

     This program is part of the open-source Quantum ESPRESSO suite
     for quantum simulation of materials; please cite
         "P. Giannozzi et al., J. Phys.:Condens. Matter 21 395502 (2009);
         "P. Giannozzi et al., J. Phys.:Condens. Matter 29 465901 (2017);
          URL http://www.quantum-espresso.org", 
     in publications or presentations arising from this work. More details at
     http://www.quantum-espresso.org/quote

     Parallel version (MPI), running on     1 processors

     MPI processes distributed on     1 nodes

     Reading xml data from directory:

     tmp/silicon.save/

     IMPORTANT: XC functional enforced from input :
     Exchange-correlation= PZ
                           (   1   1   0   0   0   0   0)
     Any further DFT definition will be discarded
     Please, verify this is what you really want


     G-vector sticks info
     --------------------
     sticks:   dense  smooth     PW     G-vecs:    dense   smooth      PW
     Sum         283     283    109                 3143     3143     725

     Reading collected, re-writing distributed wavefunctions
     high-symmetry point:  0.9000 0.8000 0.0000   x coordinate   0.0000
     high-symmetry point:  0.9000 0.8000 1.0000   x coordinate   1.0000

     Plottable bands (eV) written to file si_bands.dat.gnu
     Bands written to file si_bands.dat

 **************************************************************************

                    xk=(   0.90000,   0.80000,   0.00000  )

     point group C_s (m)    
     there are  2 classes
     the character table:

       E     s    
A'     1.00  1.00
A''    1.00 -1.00

     the symmetry operations in each class and the name of the first element:

     E        1
                                                                 
     s        2
                                                                 

     Band symmetry, C_s (m)     point group:

     e(  1 -  1) =     -1.64753  eV     1   --> A'             
     e(  2 -  2) =     -1.36577  eV     1   --> A''            
     e(  3 -  3) =      2.46538  eV     1   --> A'             
     e(  4 -  4) =      3.37239  eV     1   --> A''            
     e(  5 -  5) =      7.29663  eV     1   --> A''            
     e(  6 -  6) =      8.49621  eV     1   --> A'             
     e(  7 -  7) =     14.68208  eV     1   --> A'             
     e(  8 -  8) =     14.96606  eV     1   --> A''            

 **************************************************************************

 **************************************************************************

                    xk=(   0.90000,   0.80000,   0.02000  )

     point group C_1 (1)    
     there are  1 classes
     the character table:

       E    
A      1.00

     the symmetry operations in each class and the name of the first element:

     E        1
                                                                 

     Band symmetry, C_1 (1)     point group:

     e(  1 -  1) =     -1.70783  eV     1   --> A              
     e(  2 -  2) =     -1.30392  eV     1   --> A              
     e(  3 -  3) =      2.46814  eV     1   --> A              
     e(  4 -  4) =      3.37427  eV     1   --> A              
     e(  5 -  5) =      7.29882  eV     1   --> A              
     e(  6 -  6) =      8.49902  eV     1   --> A              
     e(  7 -  7) =     14.59855  eV     1   --> A              
     e(  8 -  8) =     15.04518  eV     1   --> A              

 **************************************************************************

 **************************************************************************

                    xk=(   0.90000,   0.80000,   0.04000  )

     Band symmetry, C_1 (1)     point group:

     e(  1 -  1) =     -1.82562  eV     1   --> A              
     e(  2 -  2) =     -1.18254  eV     1   --> A              
     e(  3 -  3) =      2.47624  eV     1   --> A              
     e(  4 -  4) =      3.37993  eV     1   --> A              
     e(  5 -  5) =      7.30486  eV     1   --> A              
     e(  6 -  6) =      8.50745  eV     1   --> A              
     e(  7 -  7) =     14.44387  eV     1   --> A              
     e(  8 -  8) =     15.17681  eV     1   --> A              

 **************************************************************************

 **************************************************************************

                    xk=(   0.90000,   0.80000,   0.06000  )

     Band symmetry, C_1 (1)     point group:

     e(  1 -  1) =     -1.95699  eV     1   --> A              
     e(  2 -  2) =     -1.04612  eV     1   --> A              
     e(  3 -  3) =      2.48975  eV     1   --> A              
     e(  4 -  4) =      3.38919  eV     1   --> A              
     e(  5 -  5) =      7.31355  eV     1   --> A              
     e(  6 -  6) =      8.52088  eV     1   --> A              
     e(  7 -  7) =     14.27515  eV     1   --> A              
     e(  8 -  8) =     15.26953  eV     1   --> A              

 **************************************************************************

 **************************************************************************

                    xk=(   0.90000,   0.80000,   0.08000  )

     Band symmetry, C_1 (1)     point group:

     e(  1 -  1) =     -2.09167  eV     1   --> A              
     e(  2 -  2) =     -0.90466  eV     1   --> A              
     e(  3 -  3) =      2.50857  eV     1   --> A              
     e(  4 -  4) =      3.40220  eV     1   --> A              
     e(  5 -  5) =      7.32547  eV     1   --> A              
     e(  6 -  6) =      8.53948  eV     1   --> A              
     e(  7 -  7) =     14.10236  eV     1   --> A              
     e(  8 -  8) =     15.24487  eV     1   --> A              

 **************************************************************************

 **************************************************************************

                    xk=(   0.90000,   0.80000,   0.10000  )

     Band symmetry, C_1 (1)     point group:

     e(  1 -  1) =     -2.22716  eV     1   --> A              
     e(  2 -  2) =     -0.76098  eV     1   --> A              
     e(  3 -  3) =      2.53279  eV     1   --> A              
     e(  4 -  4) =      3.41866  eV     1   --> A              
     e(  5 -  5) =      7.34054  eV     1   --> A              
     e(  6 -  6) =      8.56360  eV     1   --> A              
     e(  7 -  7) =     13.92867  eV     1   --> A              
     e(  8 -  8) =     15.11838  eV     1   --> A              

 **************************************************************************

 **************************************************************************

                    xk=(   0.90000,   0.80000,   0.12000  )

     Band symmetry, C_1 (1)     point group:

     e(  1 -  1) =     -2.36141  eV     1   --> A              
     e(  2 -  2) =     -0.61591  eV     1   --> A              
     e(  3 -  3) =      2.56244  eV     1   --> A              
     e(  4 -  4) =      3.43924  eV     1   --> A              
     e(  5 -  5) =      7.35921  eV     1   --> A              
     e(  6 -  6) =      8.59386  eV     1   --> A              
     e(  7 -  7) =     13.75590  eV     1   --> A              
     e(  8 -  8) =     14.95452  eV     1   --> A              

 **************************************************************************

 **************************************************************************

                    xk=(   0.90000,   0.80000,   0.14000  )

     Band symmetry, C_1 (1)     point group:

     e(  1 -  1) =     -2.49434  eV     1   --> A              
     e(  2 -  2) =     -0.47050  eV     1   --> A              
     e(  3 -  3) =      2.59742  eV     1   --> A              
     e(  4 -  4) =      3.46362  eV     1   --> A              
     e(  5 -  5) =      7.38125  eV     1   --> A              
     e(  6 -  6) =      8.62950  eV     1   --> A              
     e(  7 -  7) =     13.58410  eV     1   --> A              
     e(  8 -  8) =     14.77797  eV     1   --> A              

 **************************************************************************

 **************************************************************************

                    xk=(   0.90000,   0.80000,   0.16000  )

     Band symmetry, C_1 (1)     point group:

     e(  1 -  1) =     -2.62568  eV     1   --> A              
     e(  2 -  2) =     -0.32494  eV     1   --> A              
     e(  3 -  3) =      2.63774  eV     1   --> A              
     e(  4 -  4) =      3.49193  eV     1   --> A              
     e(  5 -  5) =      7.40652  eV     1   --> A              
     e(  6 -  6) =      8.67093  eV     1   --> A              
     e(  7 -  7) =     13.41454  eV     1   --> A              
     e(  8 -  8) =     14.59659  eV     1   --> A              

 **************************************************************************

 **************************************************************************

                    xk=(   0.90000,   0.80000,   0.18000  )

     Band symmetry, C_1 (1)     point group:

     e(  1 -  1) =     -2.75542  eV     1   --> A              
     e(  2 -  2) =     -0.17988  eV     1   --> A              
     e(  3 -  3) =      2.68334  eV     1   --> A              
     e(  4 -  4) =      3.52402  eV     1   --> A              
     e(  5 -  5) =      7.43499  eV     1   --> A              
     e(  6 -  6) =      8.71718  eV     1   --> A              
     e(  7 -  7) =     13.24514  eV     1   --> A              
     e(  8 -  8) =     14.41235  eV     1   --> A              

 **************************************************************************

 **************************************************************************

                    xk=(   0.90000,   0.80000,   0.20000  )

     Band symmetry, C_1 (1)     point group:

     e(  1 -  1) =     -2.88328  eV     1   --> A              
     e(  2 -  2) =     -0.03543  eV     1   --> A              
     e(  3 -  3) =      2.73405  eV     1   --> A              
     e(  4 -  4) =      3.56015  eV     1   --> A              
     e(  5 -  5) =      7.46662  eV     1   --> A              
     e(  6 -  6) =      8.76918  eV     1   --> A              
     e(  7 -  7) =     13.07739  eV     1   --> A              
     e(  8 -  8) =     14.22751  eV     1   --> A              

 **************************************************************************

 **************************************************************************

                    xk=(   0.90000,   0.80000,   0.22000  )

     Band symmetry, C_1 (1)     point group:

     e(  1 -  1) =     -3.00868  eV     1   --> A              
     e(  2 -  2) =      0.10817  eV     1   --> A              
     e(  3 -  3) =      2.79005  eV     1   --> A              
     e(  4 -  4) =      3.60033  eV     1   --> A              
     e(  5 -  5) =      7.50135  eV     1   --> A              
     e(  6 -  6) =      8.82716  eV     1   --> A              
     e(  7 -  7) =     12.91123  eV     1   --> A              
     e(  8 -  8) =     14.04288  eV     1   --> A              

 **************************************************************************

 **************************************************************************

                    xk=(   0.90000,   0.80000,   0.24000  )

     Band symmetry, C_1 (1)     point group:

     e(  1 -  1) =     -3.13167  eV     1   --> A              
     e(  2 -  2) =      0.25076  eV     1   --> A              
     e(  3 -  3) =      2.85103  eV     1   --> A              
     e(  4 -  4) =      3.64462  eV     1   --> A              
     e(  5 -  5) =      7.53876  eV     1   --> A              
     e(  6 -  6) =      8.89039  eV     1   --> A              
     e(  7 -  7) =     12.74681  eV     1   --> A              
     e(  8 -  8) =     13.85889  eV     1   --> A              

 **************************************************************************

 **************************************************************************

                    xk=(   0.90000,   0.80000,   0.26000  )

     Band symmetry, C_1 (1)     point group:

     e(  1 -  1) =     -3.25236  eV     1   --> A              
     e(  2 -  2) =      0.39203  eV     1   --> A              
     e(  3 -  3) =      2.91702  eV     1   --> A              
     e(  4 -  4) =      3.69318  eV     1   --> A              
     e(  5 -  5) =      7.58018  eV     1   --> A              
     e(  6 -  6) =      8.95991  eV     1   --> A              
     e(  7 -  7) =     12.58364  eV     1   --> A              
     e(  8 -  8) =     13.67565  eV     1   --> A              

 **************************************************************************

 **************************************************************************

                    xk=(   0.90000,   0.80000,   0.28000  )

     Band symmetry, C_1 (1)     point group:

     e(  1 -  1) =     -3.37046  eV     1   --> A              
     e(  2 -  2) =      0.53188  eV     1   --> A              
     e(  3 -  3) =      2.98751  eV     1   --> A              
     e(  4 -  4) =      3.74607  eV     1   --> A              
     e(  5 -  5) =      7.62336  eV     1   --> A              
     e(  6 -  6) =      9.03511  eV     1   --> A              
     e(  7 -  7) =     12.42176  eV     1   --> A              
     e(  8 -  8) =     13.49323  eV     1   --> A              

 **************************************************************************

 **************************************************************************

                    xk=(   0.90000,   0.80000,   0.30000  )

     Band symmetry, C_1 (1)     point group:

     e(  1 -  1) =     -3.48601  eV     1   --> A              
     e(  2 -  2) =      0.67056  eV     1   --> A              
     e(  3 -  3) =      3.06236  eV     1   --> A              
     e(  4 -  4) =      3.80353  eV     1   --> A              
     e(  5 -  5) =      7.66973  eV     1   --> A              
     e(  6 -  6) =      9.11548  eV     1   --> A              
     e(  7 -  7) =     12.26177  eV     1   --> A              
     e(  8 -  8) =     13.31284  eV     1   --> A              

 **************************************************************************

 **************************************************************************

                    xk=(   0.90000,   0.80000,   0.32000  )

     Band symmetry, C_1 (1)     point group:

     e(  1 -  1) =     -3.59901  eV     1   --> A              
     e(  2 -  2) =      0.80729  eV     1   --> A              
     e(  3 -  3) =      3.14124  eV     1   --> A              
     e(  4 -  4) =      3.86554  eV     1   --> A              
     e(  5 -  5) =      7.71873  eV     1   --> A              
     e(  6 -  6) =      9.20193  eV     1   --> A              
     e(  7 -  7) =     12.10273  eV     1   --> A              
     e(  8 -  8) =     13.13327  eV     1   --> A              

 **************************************************************************

 **************************************************************************

                    xk=(   0.90000,   0.80000,   0.34000  )

     Band symmetry, C_1 (1)     point group:

     e(  1 -  1) =     -3.70928  eV     1   --> A              
     e(  2 -  2) =      0.94239  eV     1   --> A              
     e(  3 -  3) =      3.22376  eV     1   --> A              
     e(  4 -  4) =      3.93232  eV     1   --> A              
     e(  5 -  5) =      7.77029  eV     1   --> A              
     e(  6 -  6) =      9.29404  eV     1   --> A              
     e(  7 -  7) =     11.94500  eV     1   --> A              
     e(  8 -  8) =     12.95525  eV     1   --> A              

 **************************************************************************

 **************************************************************************

                    xk=(   0.90000,   0.80000,   0.36000  )

     Band symmetry, C_1 (1)     point group:

     e(  1 -  1) =     -3.81669  eV     1   --> A              
     e(  2 -  2) =      1.07608  eV     1   --> A              
     e(  3 -  3) =      3.30941  eV     1   --> A              
     e(  4 -  4) =      4.00402  eV     1   --> A              
     e(  5 -  5) =      7.82438  eV     1   --> A              
     e(  6 -  6) =      9.39112  eV     1   --> A              
     e(  7 -  7) =     11.78875  eV     1   --> A              
     e(  8 -  8) =     12.77987  eV     1   --> A              

 **************************************************************************

 **************************************************************************

                    xk=(   0.90000,   0.80000,   0.38000  )

     Band symmetry, C_1 (1)     point group:

     e(  1 -  1) =     -3.92149  eV     1   --> A              
     e(  2 -  2) =      1.20839  eV     1   --> A              
     e(  3 -  3) =      3.39788  eV     1   --> A              
     e(  4 -  4) =      4.08040  eV     1   --> A              
     e(  5 -  5) =      7.88100  eV     1   --> A              
     e(  6 -  6) =      9.49432  eV     1   --> A              
     e(  7 -  7) =     11.63416  eV     1   --> A              
     e(  8 -  8) =     12.60581  eV     1   --> A              

 **************************************************************************

 **************************************************************************

                    xk=(   0.90000,   0.80000,   0.40000  )

     Band symmetry, C_1 (1)     point group:

     e(  1 -  1) =     -4.02323  eV     1   --> A              
     e(  2 -  2) =      1.33879  eV     1   --> A              
     e(  3 -  3) =      3.48857  eV     1   --> A              
     e(  4 -  4) =      4.16220  eV     1   --> A              
     e(  5 -  5) =      7.93957  eV     1   --> A              
     e(  6 -  6) =      9.60267  eV     1   --> A              
     e(  7 -  7) =     11.48050  eV     1   --> A              
     e(  8 -  8) =     12.43323  eV     1   --> A              

 **************************************************************************

 **************************************************************************

                    xk=(   0.90000,   0.80000,   0.42000  )

     Band symmetry, C_1 (1)     point group:

     e(  1 -  1) =     -4.12202  eV     1   --> A              
     e(  2 -  2) =      1.46781  eV     1   --> A              
     e(  3 -  3) =      3.58102  eV     1   --> A              
     e(  4 -  4) =      4.24908  eV     1   --> A              
     e(  5 -  5) =      7.99999  eV     1   --> A              
     e(  6 -  6) =      9.71501  eV     1   --> A              
     e(  7 -  7) =     11.32829  eV     1   --> A              
     e(  8 -  8) =     12.26262  eV     1   --> A              

 **************************************************************************

 **************************************************************************

                    xk=(   0.90000,   0.80000,   0.44000  )

     Band symmetry, C_1 (1)     point group:

     e(  1 -  1) =     -4.21777  eV     1   --> A              
     e(  2 -  2) =      1.59570  eV     1   --> A              
     e(  3 -  3) =      3.67484  eV     1   --> A              
     e(  4 -  4) =      4.34100  eV     1   --> A              
     e(  5 -  5) =      8.06254  eV     1   --> A              
     e(  6 -  6) =      9.83267  eV     1   --> A              
     e(  7 -  7) =     11.17883  eV     1   --> A              
     e(  8 -  8) =     12.09444  eV     1   --> A              

 **************************************************************************

 **************************************************************************

                    xk=(   0.90000,   0.80000,   0.46000  )

     Band symmetry, C_1 (1)     point group:

     e(  1 -  1) =     -4.31044  eV     1   --> A              
     e(  2 -  2) =      1.72257  eV     1   --> A              
     e(  3 -  3) =      3.76971  eV     1   --> A              
     e(  4 -  4) =      4.43774  eV     1   --> A              
     e(  5 -  5) =      8.12702  eV     1   --> A              
     e(  6 -  6) =      9.95344  eV     1   --> A              
     e(  7 -  7) =     11.03306  eV     1   --> A              
     e(  8 -  8) =     11.92872  eV     1   --> A              

 **************************************************************************

 **************************************************************************

                    xk=(   0.90000,   0.80000,   0.48000  )

     Band symmetry, C_1 (1)     point group:

     e(  1 -  1) =     -4.40005  eV     1   --> A              
     e(  2 -  2) =      1.84875  eV     1   --> A              
     e(  3 -  3) =      3.86518  eV     1   --> A              
     e(  4 -  4) =      4.53894  eV     1   --> A              
     e(  5 -  5) =      8.19292  eV     1   --> A              
     e(  6 -  6) =     10.07450  eV     1   --> A              
     e(  7 -  7) =     10.89269  eV     1   --> A              
     e(  8 -  8) =     11.76618  eV     1   --> A              

 **************************************************************************

 **************************************************************************

                    xk=(   0.90000,   0.80000,   0.50000  )

     Band symmetry, C_1 (1)     point group:

     e(  1 -  1) =     -4.48660  eV     1   --> A              
     e(  2 -  2) =      1.97387  eV     1   --> A              
     e(  3 -  3) =      3.96101  eV     1   --> A              
     e(  4 -  4) =      4.64395  eV     1   --> A              
     e(  5 -  5) =      8.25937  eV     1   --> A              
     e(  6 -  6) =     10.18884  eV     1   --> A              
     e(  7 -  7) =     10.76486  eV     1   --> A              
     e(  8 -  8) =     11.60535  eV     1   --> A              

 **************************************************************************

 **************************************************************************

                    xk=(   0.90000,   0.80000,   0.52000  )

     Band symmetry, C_1 (1)     point group:

     e(  1 -  1) =     -4.56976  eV     1   --> A              
     e(  2 -  2) =      2.09875  eV     1   --> A              
     e(  3 -  3) =      4.05736  eV     1   --> A              
     e(  4 -  4) =      4.75266  eV     1   --> A              
     e(  5 -  5) =      8.32745  eV     1   --> A              
     e(  6 -  6) =     10.27408  eV     1   --> A              
     e(  7 -  7) =     10.67302  eV     1   --> A              
     e(  8 -  8) =     11.44811  eV     1   --> A              

 **************************************************************************

 **************************************************************************

                    xk=(   0.90000,   0.80000,   0.54000  )

     Band symmetry, C_1 (1)     point group:

     e(  1 -  1) =     -4.64984  eV     1   --> A              
     e(  2 -  2) =      2.22318  eV     1   --> A              
     e(  3 -  3) =      4.15404  eV     1   --> A              
     e(  4 -  4) =      4.86393  eV     1   --> A              
     e(  5 -  5) =      8.39597  eV     1   --> A              
     e(  6 -  6) =     10.27566  eV     1   --> A              
     e(  7 -  7) =     10.67024  eV     1   --> A              
     e(  8 -  8) =     11.29345  eV     1   --> A              

 **************************************************************************

 **************************************************************************

                    xk=(   0.90000,   0.80000,   0.56000  )

     Band symmetry, C_1 (1)     point group:

     e(  1 -  1) =     -4.72701  eV     1   --> A              
     e(  2 -  2) =      2.34751  eV     1   --> A              
     e(  3 -  3) =      4.25046  eV     1   --> A              
     e(  4 -  4) =      4.97691  eV     1   --> A              
     e(  5 -  5) =      8.46487  eV     1   --> A              
     e(  6 -  6) =     10.19105  eV     1   --> A              
     e(  7 -  7) =     10.75809  eV     1   --> A              
     e(  8 -  8) =     11.14289  eV     1   --> A              

 **************************************************************************

 **************************************************************************

                    xk=(   0.90000,   0.80000,   0.58000  )

     Band symmetry, C_1 (1)     point group:

     e(  1 -  1) =     -4.80060  eV     1   --> A              
     e(  2 -  2) =      2.47210  eV     1   --> A              
     e(  3 -  3) =      4.34752  eV     1   --> A              
     e(  4 -  4) =      5.09094  eV     1   --> A              
     e(  5 -  5) =      8.53376  eV     1   --> A              
     e(  6 -  6) =     10.07528  eV     1   --> A              
     e(  7 -  7) =     10.87133  eV     1   --> A              
     e(  8 -  8) =     11.00877  eV     1   --> A              

 **************************************************************************

 **************************************************************************

                    xk=(   0.90000,   0.80000,   0.60000  )

     Band symmetry, C_1 (1)     point group:

     e(  1 -  1) =     -4.87107  eV     1   --> A              
     e(  2 -  2) =      2.59669  eV     1   --> A              
     e(  3 -  3) =      4.44470  eV     1   --> A              
     e(  4 -  4) =      5.20453  eV     1   --> A              
     e(  5 -  5) =      8.60097  eV     1   --> A              
     e(  6 -  6) =      9.95135  eV     1   --> A              
     e(  7 -  7) =     10.82528  eV     1   --> A              
     e(  8 -  8) =     11.05001  eV     1   --> A              

 **************************************************************************

 **************************************************************************

                    xk=(   0.90000,   0.80000,   0.62000  )

     Band symmetry, C_1 (1)     point group:

     e(  1 -  1) =     -4.93794  eV     1   --> A              
     e(  2 -  2) =      2.72211  eV     1   --> A              
     e(  3 -  3) =      4.54233  eV     1   --> A              
     e(  4 -  4) =      5.31682  eV     1   --> A              
     e(  5 -  5) =      8.66725  eV     1   --> A              
     e(  6 -  6) =      9.82937  eV     1   --> A              
     e(  7 -  7) =     10.68849  eV     1   --> A              
     e(  8 -  8) =     11.19188  eV     1   --> A              

 **************************************************************************

 **************************************************************************

                    xk=(   0.90000,   0.80000,   0.64000  )

     Band symmetry, C_1 (1)     point group:

     e(  1 -  1) =     -5.00184  eV     1   --> A              
     e(  2 -  2) =      2.84756  eV     1   --> A              
     e(  3 -  3) =      4.63976  eV     1   --> A              
     e(  4 -  4) =      5.42571  eV     1   --> A              
     e(  5 -  5) =      8.72921  eV     1   --> A              
     e(  6 -  6) =      9.71189  eV     1   --> A              
     e(  7 -  7) =     10.54843  eV     1   --> A              
     e(  8 -  8) =     11.33903  eV     1   --> A              

 **************************************************************************

 **************************************************************************

                    xk=(   0.90000,   0.80000,   0.66000  )

     Band symmetry, C_1 (1)     point group:

     e(  1 -  1) =     -5.06235  eV     1   --> A              
     e(  2 -  2) =      2.97342  eV     1   --> A              
     e(  3 -  3) =      4.73734  eV     1   --> A              
     e(  4 -  4) =      5.53068  eV     1   --> A              
     e(  5 -  5) =      8.78574  eV     1   --> A              
     e(  6 -  6) =      9.60405  eV     1   --> A              
     e(  7 -  7) =     10.41110  eV     1   --> A              
     e(  8 -  8) =     11.48440  eV     1   --> A              

 **************************************************************************

 **************************************************************************

                    xk=(   0.90000,   0.80000,   0.68000  )

     Band symmetry, C_1 (1)     point group:

     e(  1 -  1) =     -5.11960  eV     1   --> A              
     e(  2 -  2) =      3.09978  eV     1   --> A              
     e(  3 -  3) =      4.83470  eV     1   --> A              
     e(  4 -  4) =      5.62959  eV     1   --> A              
     e(  5 -  5) =      8.83389  eV     1   --> A              
     e(  6 -  6) =      9.50972  eV     1   --> A              
     e(  7 -  7) =     10.27700  eV     1   --> A              
     e(  8 -  8) =     11.62195  eV     1   --> A              

 **************************************************************************

 **************************************************************************

                    xk=(   0.90000,   0.80000,   0.70000  )

     Band symmetry, C_1 (1)     point group:

     e(  1 -  1) =     -5.17336  eV     1   --> A              
     e(  2 -  2) =      3.22680  eV     1   --> A              
     e(  3 -  3) =      4.93184  eV     1   --> A              
     e(  4 -  4) =      5.72074  eV     1   --> A              
     e(  5 -  5) =      8.86959  eV     1   --> A              
     e(  6 -  6) =      9.43419  eV     1   --> A              
     e(  7 -  7) =     10.14763  eV     1   --> A              
     e(  8 -  8) =     11.74447  eV     1   --> A              

 **************************************************************************

 **************************************************************************

                    xk=(   0.90000,   0.80000,   0.72000  )

     Band symmetry, C_1 (1)     point group:

     e(  1 -  1) =     -5.22381  eV     1   --> A              
     e(  2 -  2) =      3.35432  eV     1   --> A              
     e(  3 -  3) =      5.02812  eV     1   --> A              
     e(  4 -  4) =      5.80201  eV     1   --> A              
     e(  5 -  5) =      8.88834  eV     1   --> A              
     e(  6 -  6) =      9.38236  eV     1   --> A              
     e(  7 -  7) =     10.02400  eV     1   --> A              
     e(  8 -  8) =     11.84045  eV     1   --> A              

 **************************************************************************

 **************************************************************************

                    xk=(   0.90000,   0.80000,   0.74000  )

     Band symmetry, C_1 (1)     point group:

     e(  1 -  1) =     -5.27097  eV     1   --> A              
     e(  2 -  2) =      3.48198  eV     1   --> A              
     e(  3 -  3) =      5.12357  eV     1   --> A              
     e(  4 -  4) =      5.87143  eV     1   --> A              
     e(  5 -  5) =      8.88877  eV     1   --> A              
     e(  6 -  6) =      9.35548  eV     1   --> A              
     e(  7 -  7) =      9.90801  eV     1   --> A              
     e(  8 -  8) =     11.89640  eV     1   --> A              

 **************************************************************************

 **************************************************************************

                    xk=(   0.90000,   0.80000,   0.76000  )

     Band symmetry, C_1 (1)     point group:

     e(  1 -  1) =     -5.31451  eV     1   --> A              
     e(  2 -  2) =      3.61053  eV     1   --> A              
     e(  3 -  3) =      5.21747  eV     1   --> A              
     e(  4 -  4) =      5.92696  eV     1   --> A              
     e(  5 -  5) =      8.87583  eV     1   --> A              
     e(  6 -  6) =      9.34686  eV     1   --> A              
     e(  7 -  7) =      9.80337  eV     1   --> A              
     e(  8 -  8) =     11.90093  eV     1   --> A              

 **************************************************************************

 **************************************************************************

                    xk=(   0.90000,   0.80000,   0.78000  )

     Band symmetry, C_1 (1)     point group:

     e(  1 -  1) =     -5.35470  eV     1   --> A              
     e(  2 -  2) =      3.73922  eV     1   --> A              
     e(  3 -  3) =      5.30890  eV     1   --> A              
     e(  4 -  4) =      5.96698  eV     1   --> A              
     e(  5 -  5) =      8.85841  eV     1   --> A              
     e(  6 -  6) =      9.34223  eV     1   --> A              
     e(  7 -  7) =      9.71667  eV     1   --> A              
     e(  8 -  8) =     11.85561  eV     1   --> A              

 **************************************************************************

 **************************************************************************

                    xk=(   0.90000,   0.80000,   0.80000  )

     point group C_s (m)    
     there are  2 classes
     the character table:

       E     s    
A'     1.00  1.00
A''    1.00 -1.00

     the symmetry operations in each class and the name of the first element:

     E        1
                                                                 
     s        2
                                                                 

     Band symmetry, C_s (m)     point group:

     e(  1 -  1) =     -5.39135  eV     1   --> A'             
     e(  2 -  2) =      3.86810  eV     1   --> A'             
     e(  3 -  3) =      5.39739  eV     1   --> A'             
     e(  4 -  4) =      5.99011  eV     1   --> A''            
     e(  5 -  5) =      8.84378  eV     1   --> A'             
     e(  6 -  6) =      9.32645  eV     1   --> A''            
     e(  7 -  7) =      9.65731  eV     1   --> A'             
     e(  8 -  8) =     11.77301  eV     1   --> A'             

 **************************************************************************

 **************************************************************************

                    xk=(   0.90000,   0.80000,   0.82000  )

     point group C_1 (1)    
     there are  1 classes
     the character table:

       E    
A      1.00

     the symmetry operations in each class and the name of the first element:

     E        1
                                                                 

     Band symmetry, C_1 (1)     point group:

     e(  1 -  1) =     -5.42444  eV     1   --> A              
     e(  2 -  2) =      3.99673  eV     1   --> A              
     e(  3 -  3) =      5.48153  eV     1   --> A              
     e(  4 -  4) =      5.99596  eV     1   --> A              
     e(  5 -  5) =      8.83569  eV     1   --> A              
     e(  6 -  6) =      9.29086  eV     1   --> A              
     e(  7 -  7) =      9.63024  eV     1   --> A              
     e(  8 -  8) =     11.66825  eV     1   --> A              

 **************************************************************************

 **************************************************************************

                    xk=(   0.90000,   0.80000,   0.84000  )

     Band symmetry, C_1 (1)     point group:

     e(  1 -  1) =     -5.45398  eV     1   --> A              
     e(  2 -  2) =      4.12477  eV     1   --> A              
     e(  3 -  3) =      5.55929  eV     1   --> A              
     e(  4 -  4) =      5.98652  eV     1   --> A              
     e(  5 -  5) =      8.83357  eV     1   --> A              
     e(  6 -  6) =      9.24410  eV     1   --> A              
     e(  7 -  7) =      9.62770  eV     1   --> A              
     e(  8 -  8) =     11.55361  eV     1   --> A              

 **************************************************************************

 **************************************************************************

                    xk=(   0.90000,   0.80000,   0.86000  )

     Band symmetry, C_1 (1)     point group:

     e(  1 -  1) =     -5.48014  eV     1   --> A              
     e(  2 -  2) =      4.25158  eV     1   --> A              
     e(  3 -  3) =      5.62702  eV     1   --> A              
     e(  4 -  4) =      5.96485  eV     1   --> A              
     e(  5 -  5) =      8.83171  eV     1   --> A              
     e(  6 -  6) =      9.20339  eV     1   --> A              
     e(  7 -  7) =      9.63538  eV     1   --> A              
     e(  8 -  8) =     11.43662  eV     1   --> A              

 **************************************************************************

 **************************************************************************

                    xk=(   0.90000,   0.80000,   0.88000  )

     Band symmetry, C_1 (1)     point group:

     e(  1 -  1) =     -5.50299  eV     1   --> A              
     e(  2 -  2) =      4.37610  eV     1   --> A              
     e(  3 -  3) =      5.67735  eV     1   --> A              
     e(  4 -  4) =      5.93885  eV     1   --> A              
     e(  5 -  5) =      8.82090  eV     1   --> A              
     e(  6 -  6) =      9.18417  eV     1   --> A              
     e(  7 -  7) =      9.64399  eV     1   --> A              
     e(  8 -  8) =     11.32282  eV     1   --> A              

 **************************************************************************

 **************************************************************************

                    xk=(   0.90000,   0.80000,   0.90000  )

     point group C_s (m)    
     there are  2 classes
     the character table:

       E     s    
A'     1.00  1.00
A''    1.00 -1.00

     the symmetry operations in each class and the name of the first element:

     E        1
                                                                 
     s        2
                                                                 

     Band symmetry, C_s (m)     point group:

     e(  1 -  1) =     -5.52233  eV     1   --> A'             
     e(  2 -  2) =      4.49710  eV     1   --> A'             
     e(  3 -  3) =      5.69672  eV     1   --> A''            
     e(  4 -  4) =      5.92438  eV     1   --> A'             
     e(  5 -  5) =      8.79735  eV     1   --> A'             
     e(  6 -  6) =      9.19477  eV     1   --> A'             
     e(  7 -  7) =      9.64783  eV     1   --> A''            
     e(  8 -  8) =     11.21718  eV     1   --> A'             

 **************************************************************************

 **************************************************************************

                    xk=(   0.90000,   0.80000,   0.92000  )

     point group C_1 (1)    
     there are  1 classes
     the character table:

       E    
A      1.00

     the symmetry operations in each class and the name of the first element:

     E        1
                                                                 

     Band symmetry, C_1 (1)     point group:

     e(  1 -  1) =     -5.53810  eV     1   --> A              
     e(  2 -  2) =      4.61266  eV     1   --> A              
     e(  3 -  3) =      5.67557  eV     1   --> A              
     e(  4 -  4) =      5.93327  eV     1   --> A              
     e(  5 -  5) =      8.76502  eV     1   --> A              
     e(  6 -  6) =      9.23075  eV     1   --> A              
     e(  7 -  7) =      9.64295  eV     1   --> A              
     e(  8 -  8) =     11.12371  eV     1   --> A              

 **************************************************************************

 **************************************************************************

                    xk=(   0.90000,   0.80000,   0.94000  )

     Band symmetry, C_1 (1)     point group:

     e(  1 -  1) =     -5.55028  eV     1   --> A              
     e(  2 -  2) =      4.71913  eV     1   --> A              
     e(  3 -  3) =      5.62723  eV     1   --> A              
     e(  4 -  4) =      5.95644  eV     1   --> A              
     e(  5 -  5) =      8.73271  eV     1   --> A              
     e(  6 -  6) =      9.28278  eV     1   --> A              
     e(  7 -  7) =      9.62788  eV     1   --> A              
     e(  8 -  8) =     11.04650  eV     1   --> A              

 **************************************************************************

 **************************************************************************

                    xk=(   0.90000,   0.80000,   0.96000  )

     Band symmetry, C_1 (1)     point group:

     e(  1 -  1) =     -5.55896  eV     1   --> A              
     e(  2 -  2) =      4.81037  eV     1   --> A              
     e(  3 -  3) =      5.57063  eV     1   --> A              
     e(  4 -  4) =      5.97975  eV     1   --> A              
     e(  5 -  5) =      8.70515  eV     1   --> A              
     e(  6 -  6) =      9.34093  eV     1   --> A              
     e(  7 -  7) =      9.60233  eV     1   --> A              
     e(  8 -  8) =     10.98855  eV     1   --> A              

 **************************************************************************

 **************************************************************************

                    xk=(   0.90000,   0.80000,   0.98000  )

     Band symmetry, C_1 (1)     point group:

     e(  1 -  1) =     -5.56423  eV     1   --> A              
     e(  2 -  2) =      4.87530  eV     1   --> A              
     e(  3 -  3) =      5.52448  eV     1   --> A              
     e(  4 -  4) =      5.99539  eV     1   --> A              
     e(  5 -  5) =      8.68733  eV     1   --> A              
     e(  6 -  6) =      9.39421  eV     1   --> A              
     e(  7 -  7) =      9.57107  eV     1   --> A              
     e(  8 -  8) =     10.95269  eV     1   --> A              

 **************************************************************************

 **************************************************************************

                    xk=(   0.90000,   0.80000,   1.00000  )

     zone border point and non-symmorphic group 
     symmetry decomposition not available

 **************************************************************************

     BANDS        :      0.15s CPU      0.15s WALL


   This run was terminated on:  13:13:10  22Mar2023            

=------------------------------------------------------------------------------=
   JOB DONE.
=------------------------------------------------------------------------------=
