
     Program BANDS v.6.7MaX starts on 22Mar2023 at 16:51:21 

     This program is part of the open-source Quantum ESPRESSO suite
     for quantum simulation of materials; please cite
         "P. Giannozzi et al., J. Phys.:Condens. Matter 21 395502 (2009);
         "P. Giannozzi et al., J. Phys.:Condens. Matter 29 465901 (2017);
          URL http://www.quantum-espresso.org", 
     in publications or presentations arising from this work. More details at
     http://www.quantum-espresso.org/quote

     Parallel version (MPI), running on     1 processors

     MPI processes distributed on     1 nodes

     Reading xml data from directory:

     tmp/silicon.save/

     IMPORTANT: XC functional enforced from input :
     Exchange-correlation= PZ
                           (   1   1   0   0   0   0   0)
     Any further DFT definition will be discarded
     Please, verify this is what you really want


     G-vector sticks info
     --------------------
     sticks:   dense  smooth     PW     G-vecs:    dense   smooth      PW
     Sum         241     241     85                 2421     2421     459

     Reading collected, re-writing distributed wavefunctions
     high-symmetry point:  0.0000 0.0000 0.0000   x coordinate   0.0000
     high-symmetry point:  0.0000 0.0000 1.0000   x coordinate   1.0000

     Plottable bands (eV) written to file si_bands.dat.gnu
     Bands written to file si_bands.dat

 **************************************************************************

                    xk=(   0.00000,   0.00000,   0.00000  )

     point group O_h (m-3m) 
     there are 10 classes
     the character table:

       E     8C3   3C2   6C4   6C2'  i     8S6   3s_h  6S4   6s_d 
A_1g   1.00  1.00  1.00  1.00  1.00  1.00  1.00  1.00  1.00  1.00
A_2g   1.00  1.00  1.00 -1.00 -1.00  1.00  1.00  1.00 -1.00 -1.00
E_g    2.00 -1.00  2.00  0.00  0.00  2.00 -1.00  2.00  0.00  0.00
T_1g   3.00  0.00 -1.00  1.00 -1.00  3.00  0.00 -1.00  1.00 -1.00
T_2g   3.00  0.00 -1.00 -1.00  1.00  3.00  0.00 -1.00 -1.00  1.00
A_1u   1.00  1.00  1.00  1.00  1.00 -1.00 -1.00 -1.00 -1.00 -1.00
A_2u   1.00  1.00  1.00 -1.00 -1.00 -1.00 -1.00 -1.00  1.00  1.00
E_u    2.00 -1.00  2.00  0.00  0.00 -2.00  1.00 -2.00  0.00  0.00
T_1u   3.00  0.00 -1.00  1.00 -1.00 -3.00  0.00  1.00 -1.00  1.00
T_2u   3.00  0.00 -1.00 -1.00  1.00 -3.00  0.00  1.00  1.00 -1.00

     the symmetry operations in each class and the name of the first element:

     E        1
                                                                 
     8C3     17   19   20   18   24   21   22   23
                                                                 
     3C2      2    4    3
                                                                 
     6C4      7    8   15   16   12   11
                                                                 
     6C2'     5    6   14   13   10    9
                                                                 
     i       25
                                                                 
     8S6     41   43   44   42   48   45   46   47
                                                                 
     3s_h    26   28   27
                                                                 
     6S4     31   32   39   40   36   35
                                                                 
     6s_d    29   30   38   37   34   33
                                                                 

     Band symmetry, O_h (m-3m)  point group:

     e(  1 -  1) =     -6.11075  eV     1   --> A_1g G_1   G_1+
     e(  2 -  4) =      5.06107  eV     3   --> T_2g G_25' G_5+
     e(  5 -  5) =      7.01887  eV     1   --> A_2u G_2'  G_2-
     e(  6 -  8) =      7.45883  eV     3   --> T_1u G_15  G_4-

 **************************************************************************

 **************************************************************************

                    xk=(   0.00000,   0.00000,   0.02000  )

     point group C_4v (4mm) 
     there are  5 classes
     the character table:

       E     2C4   C2    2s_v  2s_d 
A_1    1.00  1.00  1.00  1.00  1.00
A_2    1.00  1.00  1.00 -1.00 -1.00
B_1    1.00 -1.00  1.00  1.00 -1.00
B_2    1.00 -1.00  1.00 -1.00  1.00
E      2.00  0.00 -2.00  0.00  0.00

     the symmetry operations in each class and the name of the first element:

     E        1
                                                                 
     2C4      3    4
                                                                 
     C2       2
                                                                 
     2s_v     5    6
                                                                 
     2s_d     7    8
                                                                 

     Band symmetry, C_4v (4mm)  point group:

     e(  1 -  1) =     -6.10916  eV     1   --> A_1  G_1 D_1   
     e(  2 -  2) =      5.04463  eV     1   --> B_2  G_4 D_2'  
     e(  3 -  4) =      5.05416  eV     2   --> E    G_5 D_5   
     e(  5 -  5) =      7.03499  eV     1   --> B_2  G_4 D_2'  
     e(  6 -  6) =      7.45466  eV     1   --> A_1  G_1 D_1   
     e(  7 -  8) =      7.46768  eV     2   --> E    G_5 D_5   

 **************************************************************************

 **************************************************************************

                    xk=(   0.00000,   0.00000,   0.04000  )

     Band symmetry, C_4v (4mm)  point group:

     e(  1 -  1) =     -6.10442  eV     1   --> A_1  G_1 D_1   
     e(  2 -  2) =      4.99690  eV     1   --> B_2  G_4 D_2'  
     e(  3 -  4) =      5.03375  eV     2   --> E    G_5 D_5   
     e(  5 -  5) =      7.08175  eV     1   --> B_2  G_4 D_2'  
     e(  6 -  6) =      7.44224  eV     1   --> A_1  G_1 D_1   
     e(  7 -  8) =      7.49391  eV     2   --> E    G_5 D_5   

 **************************************************************************

 **************************************************************************

                    xk=(   0.00000,   0.00000,   0.06000  )

     Band symmetry, C_4v (4mm)  point group:

     e(  1 -  1) =     -6.09471  eV     1   --> A_1  G_1 D_1   
     e(  2 -  2) =      4.91919  eV     1   --> B_2  G_4 D_2'  
     e(  3 -  4) =      5.00076  eV     2   --> E    G_5 D_5   
     e(  5 -  5) =      7.15294  eV     1   --> B_2  G_4 D_2'  
     e(  6 -  6) =      7.42165  eV     1   --> A_1  G_1 D_1   
     e(  7 -  8) =      7.53585  eV     2   --> E    G_5 D_5   

 **************************************************************************

 **************************************************************************

                    xk=(   0.00000,   0.00000,   0.08000  )

     Band symmetry, C_4v (4mm)  point group:

     e(  1 -  1) =     -6.08367  eV     1   --> A_1  G_1 D_1   
     e(  2 -  2) =      4.82174  eV     1   --> B_2  G_4 D_2'  
     e(  3 -  4) =      4.95642  eV     2   --> E    G_5 D_5   
     e(  5 -  5) =      7.24728  eV     1   --> B_2  G_4 D_2'  
     e(  6 -  6) =      7.39367  eV     1   --> A_1  G_1 D_1   
     e(  7 -  8) =      7.59369  eV     2   --> E    G_5 D_5   

 **************************************************************************

 **************************************************************************

                    xk=(   0.00000,   0.00000,   0.10000  )

     Band symmetry, C_4v (4mm)  point group:

     e(  1 -  1) =     -6.06599  eV     1   --> A_1  G_1 D_1   
     e(  2 -  2) =      4.70932  eV     1   --> B_2  G_4 D_2'  
     e(  3 -  4) =      4.90267  eV     2   --> E    G_5 D_5   
     e(  5 -  5) =      7.35942  eV     1   --> B_2  G_4 D_2'  
     e(  6 -  6) =      7.36046  eV     1   --> A_1  G_1 D_1   
     e(  7 -  8) =      7.66611  eV     2   --> E    G_5 D_5   

 **************************************************************************

 **************************************************************************

                    xk=(   0.00000,   0.00000,   0.12000  )

     Band symmetry, C_4v (4mm)  point group:

     e(  1 -  1) =     -6.04865  eV     1   --> A_1  G_1 D_1   
     e(  2 -  2) =      4.58205  eV     1   --> B_2  G_4 D_2'  
     e(  3 -  4) =      4.84040  eV     2   --> E    G_5 D_5   
     e(  5 -  5) =      7.31906  eV     1   --> A_1  G_1 D_1   
     e(  6 -  6) =      7.48011  eV     1   --> B_2  G_4 D_2'  
     e(  7 -  8) =      7.74961  eV     2   --> E    G_5 D_5   

 **************************************************************************

 **************************************************************************

                    xk=(   0.00000,   0.00000,   0.14000  )

     Band symmetry, C_4v (4mm)  point group:

     e(  1 -  1) =     -6.02817  eV     1   --> A_1  G_1 D_1   
     e(  2 -  2) =      4.43971  eV     1   --> B_2  G_4 D_2'  
     e(  3 -  4) =      4.77055  eV     2   --> E    G_5 D_5   
     e(  5 -  5) =      7.26866  eV     1   --> A_1  G_1 D_1   
     e(  6 -  6) =      7.60245  eV     1   --> B_2  G_4 D_2'  
     e(  7 -  8) =      7.84062  eV     2   --> E    G_5 D_5   

 **************************************************************************

 **************************************************************************

                    xk=(   0.00000,   0.00000,   0.16000  )

     Band symmetry, C_4v (4mm)  point group:

     e(  1 -  1) =     -6.00454  eV     1   --> A_1  G_1 D_1   
     e(  2 -  2) =      4.29492  eV     1   --> B_2  G_4 D_2'  
     e(  3 -  4) =      4.69647  eV     2   --> E    G_5 D_5   
     e(  5 -  5) =      7.21656  eV     1   --> A_1  G_1 D_1   
     e(  6 -  6) =      7.73448  eV     1   --> B_2  G_4 D_2'  
     e(  7 -  8) =      7.94348  eV     2   --> E    G_5 D_5   

 **************************************************************************

 **************************************************************************

                    xk=(   0.00000,   0.00000,   0.18000  )

     Band symmetry, C_4v (4mm)  point group:

     e(  1 -  1) =     -5.97776  eV     1   --> A_1  G_1 D_1   
     e(  2 -  2) =      4.14472  eV     1   --> B_2  G_4 D_2'  
     e(  3 -  4) =      4.61836  eV     2   --> E    G_5 D_5   
     e(  5 -  5) =      7.16022  eV     1   --> A_1  G_1 D_1   
     e(  6 -  6) =      7.86724  eV     1   --> B_2  G_4 D_2'  
     e(  7 -  8) =      8.05413  eV     2   --> E    G_5 D_5   

 **************************************************************************

 **************************************************************************

                    xk=(   0.00000,   0.00000,   0.20000  )

     Band symmetry, C_4v (4mm)  point group:

     e(  1 -  1) =     -5.94785  eV     1   --> A_1  G_1 D_1   
     e(  2 -  2) =      3.99046  eV     1   --> B_2  G_4 D_2'  
     e(  3 -  4) =      4.53729  eV     2   --> E    G_5 D_5   
     e(  5 -  5) =      7.10036  eV     1   --> A_1  G_1 D_1   
     e(  6 -  6) =      7.99770  eV     1   --> B_2  G_4 D_2'  
     e(  7 -  8) =      8.17152  eV     2   --> E    G_5 D_5   

 **************************************************************************

 **************************************************************************

                    xk=(   0.00000,   0.00000,   0.22000  )

     Band symmetry, C_4v (4mm)  point group:

     e(  1 -  1) =     -5.91481  eV     1   --> A_1  G_1 D_1   
     e(  2 -  2) =      3.83312  eV     1   --> B_2  G_4 D_2'  
     e(  3 -  4) =      4.45413  eV     2   --> E    G_5 D_5   
     e(  5 -  5) =      7.03765  eV     1   --> A_1  G_1 D_1   
     e(  6 -  6) =      8.12312  eV     1   --> B_2  G_4 D_2'  
     e(  7 -  8) =      8.29473  eV     2   --> E    G_5 D_5   

 **************************************************************************

 **************************************************************************

                    xk=(   0.00000,   0.00000,   0.24000  )

     Band symmetry, C_4v (4mm)  point group:

     e(  1 -  1) =     -5.87865  eV     1   --> A_1  G_1 D_1   
     e(  2 -  2) =      3.67345  eV     1   --> B_2  G_4 D_2'  
     e(  3 -  4) =      4.36963  eV     2   --> E    G_5 D_5   
     e(  5 -  5) =      6.97274  eV     1   --> A_1  G_1 D_1   
     e(  6 -  6) =      8.24019  eV     1   --> B_2  G_4 D_2'  
     e(  7 -  8) =      8.42299  eV     2   --> E    G_5 D_5   

 **************************************************************************

 **************************************************************************

                    xk=(   0.00000,   0.00000,   0.26000  )

     Band symmetry, C_4v (4mm)  point group:

     e(  1 -  1) =     -5.83938  eV     1   --> A_1  G_1 D_1   
     e(  2 -  2) =      3.51201  eV     1   --> B_2  G_4 D_2'  
     e(  3 -  4) =      4.28441  eV     2   --> E    G_5 D_5   
     e(  5 -  5) =      6.90621  eV     1   --> A_1  G_1 D_1   
     e(  6 -  6) =      8.34529  eV     1   --> B_2  G_4 D_2'  
     e(  7 -  8) =      8.55565  eV     2   --> E    G_5 D_5   

 **************************************************************************

 **************************************************************************

                    xk=(   0.00000,   0.00000,   0.28000  )

     Band symmetry, C_4v (4mm)  point group:

     e(  1 -  1) =     -5.79701  eV     1   --> A_1  G_1 D_1   
     e(  2 -  2) =      3.34922  eV     1   --> B_2  G_4 D_2'  
     e(  3 -  4) =      4.19899  eV     2   --> E    G_5 D_5   
     e(  5 -  5) =      6.83861  eV     1   --> A_1  G_1 D_1   
     e(  6 -  6) =      8.43444  eV     1   --> B_2  G_4 D_2'  
     e(  7 -  8) =      8.69218  eV     2   --> E    G_5 D_5   

 **************************************************************************

 **************************************************************************

                    xk=(   0.00000,   0.00000,   0.30000  )

     Band symmetry, C_4v (4mm)  point group:

     e(  1 -  1) =     -5.74690  eV     1   --> A_1  G_1 D_1   
     e(  2 -  2) =      3.18542  eV     1   --> B_2  G_4 D_2'  
     e(  3 -  4) =      4.11447  eV     2   --> E    G_5 D_5   
     e(  5 -  5) =      6.77045  eV     1   --> A_1  G_1 D_1   
     e(  6 -  6) =      8.50353  eV     1   --> B_2  G_4 D_2'  
     e(  7 -  8) =      8.83230  eV     2   --> E    G_5 D_5   

 **************************************************************************

 **************************************************************************

                    xk=(   0.00000,   0.00000,   0.32000  )

     Band symmetry, C_4v (4mm)  point group:

     e(  1 -  1) =     -5.69848  eV     1   --> A_1  G_1 D_1   
     e(  2 -  2) =      3.02087  eV     1   --> B_2  G_4 D_2'  
     e(  3 -  4) =      4.02984  eV     2   --> E    G_5 D_5   
     e(  5 -  5) =      6.70216  eV     1   --> A_1  G_1 D_1   
     e(  6 -  6) =      8.54882  eV     1   --> B_2  G_4 D_2'  
     e(  7 -  8) =      8.97525  eV     2   --> E    G_5 D_5   

 **************************************************************************

 **************************************************************************

                    xk=(   0.00000,   0.00000,   0.34000  )

     Band symmetry, C_4v (4mm)  point group:

     e(  1 -  1) =     -5.64699  eV     1   --> A_1  G_1 D_1   
     e(  2 -  2) =      2.85577  eV     1   --> B_2  G_4 D_2'  
     e(  3 -  4) =      3.94611  eV     2   --> E    G_5 D_5   
     e(  5 -  5) =      6.63414  eV     1   --> A_1  G_1 D_1   
     e(  6 -  6) =      8.56768  eV     1   --> B_2  G_4 D_2'  
     e(  7 -  8) =      9.12088  eV     2   --> E    G_5 D_5   

 **************************************************************************

 **************************************************************************

                    xk=(   0.00000,   0.00000,   0.36000  )

     Band symmetry, C_4v (4mm)  point group:

     e(  1 -  1) =     -5.59245  eV     1   --> A_1  G_1 D_1   
     e(  2 -  2) =      2.69029  eV     1   --> B_2  G_4 D_2'  
     e(  3 -  4) =      3.86354  eV     2   --> E    G_5 D_5   
     e(  5 -  5) =      6.56677  eV     1   --> A_1  G_1 D_1   
     e(  6 -  6) =      8.55930  eV     1   --> B_2  G_4 D_2'  
     e(  7 -  8) =      9.26890  eV     2   --> E    G_5 D_5   

 **************************************************************************

 **************************************************************************

                    xk=(   0.00000,   0.00000,   0.38000  )

     Band symmetry, C_4v (4mm)  point group:

     e(  1 -  1) =     -5.53486  eV     1   --> A_1  G_1 D_1   
     e(  2 -  2) =      2.52456  eV     1   --> B_2  G_4 D_2'  
     e(  3 -  4) =      3.78235  eV     2   --> E    G_5 D_5   
     e(  5 -  5) =      6.50036  eV     1   --> A_1  G_1 D_1   
     e(  6 -  6) =      8.52500  eV     1   --> B_2  G_4 D_2'  
     e(  7 -  8) =      9.41905  eV     2   --> E    G_5 D_5   

 **************************************************************************

 **************************************************************************

                    xk=(   0.00000,   0.00000,   0.40000  )

     Band symmetry, C_4v (4mm)  point group:

     e(  1 -  1) =     -5.47425  eV     1   --> A_1  G_1 D_1   
     e(  2 -  2) =      2.35870  eV     1   --> B_2  G_4 D_2'  
     e(  3 -  4) =      3.70273  eV     2   --> E    G_5 D_5   
     e(  5 -  5) =      6.43521  eV     1   --> A_1  G_1 D_1   
     e(  6 -  6) =      8.46772  eV     1   --> B_2  G_4 D_2'  
     e(  7 -  8) =      9.57115  eV     2   --> E    G_5 D_5   

 **************************************************************************

 **************************************************************************

                    xk=(   0.00000,   0.00000,   0.42000  )

     Band symmetry, C_4v (4mm)  point group:

     e(  1 -  1) =     -5.41062  eV     1   --> A_1  G_1 D_1   
     e(  2 -  2) =      2.19279  eV     1   --> B_2  G_4 D_2'  
     e(  3 -  4) =      3.62485  eV     2   --> E    G_5 D_5   
     e(  5 -  5) =      6.37157  eV     1   --> A_1  G_1 D_1   
     e(  6 -  6) =      8.39143  eV     1   --> B_2  G_4 D_2'  
     e(  7 -  8) =      9.72499  eV     2   --> E    G_5 D_5   

 **************************************************************************

 **************************************************************************

                    xk=(   0.00000,   0.00000,   0.44000  )

     Band symmetry, C_4v (4mm)  point group:

     e(  1 -  1) =     -5.34399  eV     1   --> A_1  G_1 D_1   
     e(  2 -  2) =      2.02693  eV     1   --> B_2  G_4 D_2'  
     e(  3 -  4) =      3.54884  eV     2   --> E    G_5 D_5   
     e(  5 -  5) =      6.30969  eV     1   --> A_1  G_1 D_1   
     e(  6 -  6) =      8.30023  eV     1   --> B_2  G_4 D_2'  
     e(  7 -  8) =      9.88041  eV     2   --> E    G_5 D_5   

 **************************************************************************

 **************************************************************************

                    xk=(   0.00000,   0.00000,   0.46000  )

     Band symmetry, C_4v (4mm)  point group:

     e(  1 -  1) =     -5.27439  eV     1   --> A_1  G_1 D_1   
     e(  2 -  2) =      1.86116  eV     1   --> B_2  G_4 D_2'  
     e(  3 -  4) =      3.47483  eV     2   --> E    G_5 D_5   
     e(  5 -  5) =      6.24977  eV     1   --> A_1  G_1 D_1   
     e(  6 -  6) =      8.19797  eV     1   --> B_2  G_4 D_2'  
     e(  7 -  8) =     10.03727  eV     2   --> E    G_5 D_5   

 **************************************************************************

 **************************************************************************

                    xk=(   0.00000,   0.00000,   0.48000  )

     Band symmetry, C_4v (4mm)  point group:

     e(  1 -  1) =     -5.20182  eV     1   --> A_1  G_1 D_1   
     e(  2 -  2) =      1.69557  eV     1   --> B_2  G_4 D_2'  
     e(  3 -  4) =      3.40293  eV     2   --> E    G_5 D_5   
     e(  5 -  5) =      6.19201  eV     1   --> A_1  G_1 D_1   
     e(  6 -  6) =      8.08786  eV     1   --> B_2  G_4 D_2'  
     e(  7 -  8) =     10.19545  eV     2   --> E    G_5 D_5   

 **************************************************************************

 **************************************************************************

                    xk=(   0.00000,   0.00000,   0.50000  )

     Band symmetry, C_4v (4mm)  point group:

     e(  1 -  1) =     -5.12632  eV     1   --> A_1  G_1 D_1   
     e(  2 -  2) =      1.53021  eV     1   --> B_2  G_4 D_2'  
     e(  3 -  4) =      3.33323  eV     2   --> E    G_5 D_5   
     e(  5 -  5) =      6.13658  eV     1   --> A_1  G_1 D_1   
     e(  6 -  6) =      7.97253  eV     1   --> B_2  G_4 D_2'  
     e(  7 -  8) =     10.35482  eV     2   --> E    G_5 D_5   

 **************************************************************************

 **************************************************************************

                    xk=(   0.00000,   0.00000,   0.52000  )

     Band symmetry, C_4v (4mm)  point group:

     e(  1 -  1) =     -5.04790  eV     1   --> A_1  G_1 D_1   
     e(  2 -  2) =      1.36514  eV     1   --> B_2  G_4 D_2'  
     e(  3 -  4) =      3.26581  eV     2   --> E    G_5 D_5   
     e(  5 -  5) =      6.08364  eV     1   --> A_1  G_1 D_1   
     e(  6 -  6) =      7.85409  eV     1   --> B_2  G_4 D_2'  
     e(  7 -  8) =     10.51527  eV     2   --> E    G_5 D_5   

 **************************************************************************

 **************************************************************************

                    xk=(   0.00000,   0.00000,   0.54000  )

     Band symmetry, C_4v (4mm)  point group:

     e(  1 -  1) =     -4.96658  eV     1   --> A_1  G_1 D_1   
     e(  2 -  2) =      1.20041  eV     1   --> B_2  G_4 D_2'  
     e(  3 -  4) =      3.20076  eV     2   --> E    G_5 D_5   
     e(  5 -  5) =      6.03333  eV     1   --> A_1  G_1 D_1   
     e(  6 -  6) =      7.73418  eV     1   --> B_2  G_4 D_2'  
     e(  7 -  8) =     10.67673  eV     2   --> E    G_5 D_5   

 **************************************************************************

 **************************************************************************

                    xk=(   0.00000,   0.00000,   0.56000  )

     Band symmetry, C_4v (4mm)  point group:

     e(  1 -  1) =     -4.88363  eV     1   --> A_1  G_1 D_1   
     e(  2 -  2) =      1.03377  eV     1   --> B_2  G_4 D_2'  
     e(  3 -  4) =      3.13806  eV     2   --> E    G_5 D_5   
     e(  5 -  5) =      5.98092  eV     1   --> A_1  G_1 D_1   
     e(  6 -  6) =      7.60941  eV     1   --> B_2  G_4 D_2'  
     e(  7 -  8) =     10.83815  eV     2   --> E    G_5 D_5   

 **************************************************************************

 **************************************************************************

                    xk=(   0.00000,   0.00000,   0.58000  )

     Band symmetry, C_4v (4mm)  point group:

     e(  1 -  1) =     -4.79662  eV     1   --> A_1  G_1 D_1   
     e(  2 -  2) =      0.86982  eV     1   --> B_2  G_4 D_2'  
     e(  3 -  4) =      3.07792  eV     2   --> E    G_5 D_5   
     e(  5 -  5) =      5.93608  eV     1   --> A_1  G_1 D_1   
     e(  6 -  6) =      7.49009  eV     1   --> B_2  G_4 D_2'  
     e(  7 -  8) =     11.00132  eV     2   --> E    G_5 D_5   

 **************************************************************************

 **************************************************************************

                    xk=(   0.00000,   0.00000,   0.60000  )

     Band symmetry, C_4v (4mm)  point group:

     e(  1 -  1) =     -4.70678  eV     1   --> A_1  G_1 D_1   
     e(  2 -  2) =      0.70650  eV     1   --> B_2  G_4 D_2'  
     e(  3 -  4) =      3.02031  eV     2   --> E    G_5 D_5   
     e(  5 -  5) =      5.89423  eV     1   --> A_1  G_1 D_1   
     e(  6 -  6) =      7.37662  eV     1   --> B_2  G_4 D_2'  
     e(  7 -  8) =     11.16524  eV     2   --> E    G_5 D_5   

 **************************************************************************

 **************************************************************************

                    xk=(   0.00000,   0.00000,   0.62000  )

     Band symmetry, C_4v (4mm)  point group:

     e(  1 -  1) =     -4.61711  eV     1   --> A_1  G_1 D_1   
     e(  2 -  2) =      0.54308  eV     1   --> B_2  G_4 D_2'  
     e(  3 -  4) =      2.96527  eV     2   --> E    G_5 D_5   
     e(  5 -  5) =      5.85457  eV     1   --> A_1  G_1 D_1   
     e(  6 -  6) =      7.25945  eV     1   --> B_2  G_4 D_2'  
     e(  7 -  8) =     11.32872  eV     2   --> E    G_5 D_5   

 **************************************************************************

 **************************************************************************

                    xk=(   0.00000,   0.00000,   0.64000  )

     Band symmetry, C_4v (4mm)  point group:

     e(  1 -  1) =     -4.52176  eV     1   --> A_1  G_1 D_1   
     e(  2 -  2) =      0.38084  eV     1   --> B_2  G_4 D_2'  
     e(  3 -  4) =      2.91287  eV     2   --> E    G_5 D_5   
     e(  5 -  5) =      5.81901  eV     1   --> A_1  G_1 D_1   
     e(  6 -  6) =      7.14650  eV     1   --> B_2  G_4 D_2'  
     e(  7 -  8) =     11.49392  eV     2   --> E    G_5 D_5   

 **************************************************************************

 **************************************************************************

                    xk=(   0.00000,   0.00000,   0.66000  )

     Band symmetry, C_4v (4mm)  point group:

     e(  1 -  1) =     -4.42367  eV     1   --> A_1  G_1 D_1   
     e(  2 -  2) =      0.21929  eV     1   --> B_2  G_4 D_2'  
     e(  3 -  4) =      2.86314  eV     2   --> E    G_5 D_5   
     e(  5 -  5) =      5.78673  eV     1   --> A_1  G_1 D_1   
     e(  6 -  6) =      7.03670  eV     1   --> B_2  G_4 D_2'  
     e(  7 -  8) =     11.65952  eV     2   --> E    G_5 D_5   

 **************************************************************************

 **************************************************************************

                    xk=(   0.00000,   0.00000,   0.68000  )

     Band symmetry, C_4v (4mm)  point group:

     e(  1 -  1) =     -4.32288  eV     1   --> A_1  G_1 D_1   
     e(  2 -  2) =      0.05848  eV     1   --> B_2  G_4 D_2'  
     e(  3 -  4) =      2.81611  eV     2   --> E    G_5 D_5   
     e(  5 -  5) =      5.75783  eV     1   --> A_1  G_1 D_1   
     e(  6 -  6) =      6.93037  eV     1   --> B_2  G_4 D_2'  
     e(  7 -  8) =     11.82555  eV     2   --> E    G_5 D_5   

 **************************************************************************

 **************************************************************************

                    xk=(   0.00000,   0.00000,   0.70000  )

     Band symmetry, C_4v (4mm)  point group:

     e(  1 -  1) =     -4.21942  eV     1   --> A_1  G_1 D_1   
     e(  2 -  2) =     -0.10153  eV     1   --> B_2  G_4 D_2'  
     e(  3 -  4) =      2.77181  eV     2   --> E    G_5 D_5   
     e(  5 -  5) =      5.73237  eV     1   --> A_1  G_1 D_1   
     e(  6 -  6) =      6.82774  eV     1   --> B_2  G_4 D_2'  
     e(  7 -  8) =     11.99183  eV     2   --> E    G_5 D_5   

 **************************************************************************

 **************************************************************************

                    xk=(   0.00000,   0.00000,   0.72000  )

     Band symmetry, C_4v (4mm)  point group:

     e(  1 -  1) =     -4.11332  eV     1   --> A_1  G_1 D_1   
     e(  2 -  2) =     -0.26066  eV     1   --> B_2  G_4 D_2'  
     e(  3 -  4) =      2.73026  eV     2   --> E    G_5 D_5   
     e(  5 -  5) =      5.71044  eV     1   --> A_1  G_1 D_1   
     e(  6 -  6) =      6.72902  eV     1   --> B_2  G_4 D_2'  
     e(  7 -  8) =     12.15817  eV     2   --> E    G_5 D_5   

 **************************************************************************

 **************************************************************************

                    xk=(   0.00000,   0.00000,   0.74000  )

     Band symmetry, C_4v (4mm)  point group:

     e(  1 -  1) =     -3.99911  eV     1   --> A_1  G_1 D_1   
     e(  2 -  2) =     -0.41885  eV     1   --> B_2  G_4 D_2'  
     e(  3 -  4) =      2.69278  eV     2   --> E    G_5 D_5   
     e(  5 -  5) =      5.69219  eV     1   --> A_1  G_1 D_1   
     e(  6 -  6) =      6.63435  eV     1   --> B_2  G_4 D_2'  
     e(  7 -  8) =     12.32439  eV     2   --> E    G_5 D_5   

 **************************************************************************

 **************************************************************************

                    xk=(   0.00000,   0.00000,   0.76000  )

     Band symmetry, C_4v (4mm)  point group:

     e(  1 -  1) =     -3.88790  eV     1   --> A_1  G_1 D_1   
     e(  2 -  2) =     -0.58133  eV     1   --> B_2  G_4 D_2'  
     e(  3 -  4) =      2.65638  eV     2   --> E    G_5 D_5   
     e(  5 -  5) =      5.67751  eV     1   --> A_1  G_1 D_1   
     e(  6 -  6) =      6.54163  eV     1   --> B_2  G_4 D_2'  
     e(  7 -  8) =     12.48432  eV     2   --> E    G_5 D_5   

 **************************************************************************

 **************************************************************************

                    xk=(   0.00000,   0.00000,   0.78000  )

     Band symmetry, C_4v (4mm)  point group:

     e(  1 -  1) =     -3.77418  eV     1   --> A_1  G_1 D_1   
     e(  2 -  2) =     -0.73757  eV     1   --> B_2  G_4 D_2'  
     e(  3 -  4) =      2.62319  eV     2   --> E    G_5 D_5   
     e(  5 -  5) =      5.66656  eV     1   --> A_1  G_1 D_1   
     e(  6 -  6) =      6.45539  eV     1   --> B_2  G_4 D_2'  
     e(  7 -  8) =     12.64925  eV     2   --> E    G_5 D_5   

 **************************************************************************

 **************************************************************************

                    xk=(   0.00000,   0.00000,   0.80000  )

     Band symmetry, C_4v (4mm)  point group:

     e(  1 -  1) =     -3.65291  eV     1   --> A_1  G_1 D_1   
     e(  2 -  2) =     -0.89187  eV     1   --> B_2  G_4 D_2'  
     e(  3 -  4) =      2.59411  eV     2   --> E    G_5 D_5   
     e(  5 -  5) =      5.66050  eV     1   --> A_1  G_1 D_1   
     e(  6 -  6) =      6.38084  eV     1   --> B_2  G_4 D_2'  
     e(  7 -  8) =     12.81551  eV     2   --> E    G_5 D_5   

 **************************************************************************

 **************************************************************************

                    xk=(   0.00000,   0.00000,   0.82000  )

     Band symmetry, C_4v (4mm)  point group:

     e(  1 -  1) =     -3.53624  eV     1   --> A_1  G_1 D_1   
     e(  2 -  2) =     -1.05106  eV     1   --> B_2  G_4 D_2'  
     e(  3 -  4) =      2.56586  eV     2   --> E    G_5 D_5   
     e(  5 -  5) =      5.65643  eV     1   --> A_1  G_1 D_1   
     e(  6 -  6) =      6.30299  eV     1   --> B_2  G_4 D_2'  
     e(  7 -  8) =     12.97121  eV     2   --> E    G_5 D_5   

 **************************************************************************

 **************************************************************************

                    xk=(   0.00000,   0.00000,   0.84000  )

     Band symmetry, C_4v (4mm)  point group:

     e(  1 -  1) =     -3.41539  eV     1   --> A_1  G_1 D_1   
     e(  2 -  2) =     -1.20380  eV     1   --> B_2  G_4 D_2'  
     e(  3 -  4) =      2.54112  eV     2   --> E    G_5 D_5   
     e(  5 -  5) =      5.65701  eV     1   --> A_1  G_1 D_1   
     e(  6 -  6) =      6.22972  eV     1   --> B_2  G_4 D_2'  
     e(  7 -  8) =     13.13040  eV     2   --> E    G_5 D_5   

 **************************************************************************

 **************************************************************************

                    xk=(   0.00000,   0.00000,   0.86000  )

     Band symmetry, C_4v (4mm)  point group:

     e(  1 -  1) =     -3.29220  eV     1   --> A_1  G_1 D_1   
     e(  2 -  2) =     -1.35243  eV     1   --> B_2  G_4 D_2'  
     e(  3 -  4) =      2.51955  eV     2   --> E    G_5 D_5   
     e(  5 -  5) =      5.66254  eV     1   --> A_1  G_1 D_1   
     e(  6 -  6) =      6.16789  eV     1   --> B_2  G_4 D_2'  
     e(  7 -  8) =     13.29385  eV     2   --> E    G_5 D_5   

 **************************************************************************

 **************************************************************************

                    xk=(   0.00000,   0.00000,   0.88000  )

     Band symmetry, C_4v (4mm)  point group:

     e(  1 -  1) =     -3.16672  eV     1   --> A_1  G_1 D_1   
     e(  2 -  2) =     -1.50244  eV     1   --> B_2  G_4 D_2'  
     e(  3 -  4) =      2.50055  eV     2   --> E    G_5 D_5   
     e(  5 -  5) =      5.67110  eV     1   --> A_1  G_1 D_1   
     e(  6 -  6) =      6.10336  eV     1   --> B_2  G_4 D_2'  
     e(  7 -  8) =     13.44323  eV     2   --> E    G_5 D_5   

 **************************************************************************

 **************************************************************************

                    xk=(   0.00000,   0.00000,   0.90000  )

     Band symmetry, C_4v (4mm)  point group:

     e(  1 -  1) =     -3.03899  eV     1   --> A_1  G_1 D_1   
     e(  2 -  2) =     -1.65096  eV     1   --> B_2  G_4 D_2'  
     e(  3 -  4) =      2.48446  eV     2   --> E    G_5 D_5   
     e(  5 -  5) =      5.68372  eV     1   --> A_1  G_1 D_1   
     e(  6 -  6) =      6.04330  eV     1   --> B_2  G_4 D_2'  
     e(  7 -  8) =     13.58442  eV     2   --> E    G_5 D_5   

 **************************************************************************

 **************************************************************************

                    xk=(   0.00000,   0.00000,   0.92000  )

     Band symmetry, C_4v (4mm)  point group:

     e(  1 -  1) =     -2.90908  eV     1   --> A_1  G_1 D_1   
     e(  2 -  2) =     -1.79790  eV     1   --> B_2  G_4 D_2'  
     e(  3 -  4) =      2.47129  eV     2   --> E    G_5 D_5   
     e(  5 -  5) =      5.70046  eV     1   --> A_1  G_1 D_1   
     e(  6 -  6) =      5.98769  eV     1   --> B_2  G_4 D_2'  
     e(  7 -  8) =     13.71381  eV     2   --> E    G_5 D_5   

 **************************************************************************

 **************************************************************************

                    xk=(   0.00000,   0.00000,   0.94000  )

     Band symmetry, C_4v (4mm)  point group:

     e(  1 -  1) =     -2.77703  eV     1   --> A_1  G_1 D_1   
     e(  2 -  2) =     -1.94321  eV     1   --> B_2  G_4 D_2'  
     e(  3 -  4) =      2.46103  eV     2   --> E    G_5 D_5   
     e(  5 -  5) =      5.72136  eV     1   --> A_1  G_1 D_1   
     e(  6 -  6) =      5.93655  eV     1   --> B_2  G_4 D_2'  
     e(  7 -  8) =     13.82639  eV     2   --> E    G_5 D_5   

 **************************************************************************

 **************************************************************************

                    xk=(   0.00000,   0.00000,   0.96000  )

     Band symmetry, C_4v (4mm)  point group:

     e(  1 -  1) =     -2.64291  eV     1   --> A_1  G_1 D_1   
     e(  2 -  2) =     -2.08682  eV     1   --> B_2  G_4 D_2'  
     e(  3 -  4) =      2.45370  eV     2   --> E    G_5 D_5   
     e(  5 -  5) =      5.74647  eV     1   --> A_1  G_1 D_1   
     e(  6 -  6) =      5.88981  eV     1   --> B_2  G_4 D_2'  
     e(  7 -  8) =     13.91558  eV     2   --> E    G_5 D_5   

 **************************************************************************

 **************************************************************************

                    xk=(   0.00000,   0.00000,   0.98000  )

     Band symmetry, C_4v (4mm)  point group:

     e(  1 -  1) =     -2.50676  eV     1   --> A_1  G_1 D_1   
     e(  2 -  2) =     -2.22865  eV     1   --> B_2  G_4 D_2'  
     e(  3 -  4) =      2.44930  eV     2   --> E    G_5 D_5   
     e(  5 -  5) =      5.77584  eV     1   --> A_1  G_1 D_1   
     e(  6 -  6) =      5.84747  eV     1   --> B_2  G_4 D_2'  
     e(  7 -  8) =     13.97353  eV     2   --> E    G_5 D_5   

 **************************************************************************

 **************************************************************************

                    xk=(   0.00000,   0.00000,   1.00000  )

     zone border point and non-symmorphic group 
     symmetry decomposition not available

 **************************************************************************

     BANDS        :      0.34s CPU      0.34s WALL


   This run was terminated on:  16:51:21  22Mar2023            

=------------------------------------------------------------------------------=
   JOB DONE.
=------------------------------------------------------------------------------=
