
     Program BANDS v.6.7MaX starts on 22Mar2023 at 17:16: 9 

     This program is part of the open-source Quantum ESPRESSO suite
     for quantum simulation of materials; please cite
         "P. Giannozzi et al., J. Phys.:Condens. Matter 21 395502 (2009);
         "P. Giannozzi et al., J. Phys.:Condens. Matter 29 465901 (2017);
          URL http://www.quantum-espresso.org", 
     in publications or presentations arising from this work. More details at
     http://www.quantum-espresso.org/quote

     Parallel version (MPI), running on     1 processors

     MPI processes distributed on     1 nodes

     Reading xml data from directory:

     tmp/silicon.save/

     IMPORTANT: XC functional enforced from input :
     Exchange-correlation= PZ
                           (   1   1   0   0   0   0   0)
     Any further DFT definition will be discarded
     Please, verify this is what you really want


     G-vector sticks info
     --------------------
     sticks:   dense  smooth     PW     G-vecs:    dense   smooth      PW
     Sum         241     241     85                 2421     2421     459

     Reading collected, re-writing distributed wavefunctions
     high-symmetry point:  0.0000 0.1000 0.0000   x coordinate   0.0000
     high-symmetry point:  0.0000 0.1000 1.0000   x coordinate   1.0000

     Plottable bands (eV) written to file si_bands.dat.gnu
     Bands written to file si_bands.dat

 **************************************************************************

                    xk=(   0.00000,   0.10000,   0.00000  )

     point group C_4v (4mm) 
     there are  5 classes
     the character table:

       E     2C4   C2    2s_v  2s_d 
A_1    1.00  1.00  1.00  1.00  1.00
A_2    1.00  1.00  1.00 -1.00 -1.00
B_1    1.00 -1.00  1.00  1.00 -1.00
B_2    1.00 -1.00  1.00 -1.00  1.00
E      2.00  0.00 -2.00  0.00  0.00

     the symmetry operations in each class and the name of the first element:

     E        1
                                                                 
     2C4      3    4
                                                                 
     C2       2
                                                                 
     2s_v     5    6
                                                                 
     2s_d     7    8
                                                                 

     Band symmetry, C_4v (4mm)  point group:

     e(  1 -  1) =     -6.12124  eV     1   --> A_1  G_1 D_1   
     e(  2 -  2) =      4.63953  eV     1   --> B_2  G_4 D_2'  
     e(  3 -  4) =      4.83560  eV     2   --> E    G_5 D_5   
     e(  5 -  5) =      7.28534  eV     1   --> B_2  G_4 D_2'  
     e(  6 -  6) =      7.31974  eV     1   --> A_1  G_1 D_1   
     e(  7 -  8) =      7.62285  eV     2   --> E    G_5 D_5   

 **************************************************************************

 **************************************************************************

                    xk=(   0.00000,   0.10000,   0.02000  )

     point group C_s (m)    
     there are  2 classes
     the character table:

       E     s    
A'     1.00  1.00
A''    1.00 -1.00

     the symmetry operations in each class and the name of the first element:

     E        1
                                                                 
     s        2
                                                                 

     Band symmetry, C_s (m)     point group:

     e(  1 -  1) =     -6.12143  eV     1   --> A'             
     e(  2 -  2) =      4.60190  eV     1   --> A''            
     e(  3 -  3) =      4.82850  eV     1   --> A'             
     e(  4 -  4) =      4.85753  eV     1   --> A''            
     e(  5 -  5) =      7.27057  eV     1   --> A''            
     e(  6 -  6) =      7.32677  eV     1   --> A'             
     e(  7 -  7) =      7.61830  eV     1   --> A'             
     e(  8 -  8) =      7.64756  eV     1   --> A''            

 **************************************************************************

 **************************************************************************

                    xk=(   0.00000,   0.10000,   0.04000  )

     Band symmetry, C_s (m)     point group:

     e(  1 -  1) =     -6.11673  eV     1   --> A'             
     e(  2 -  2) =      4.52140  eV     1   --> A''            
     e(  3 -  3) =      4.80793  eV     1   --> A'             
     e(  4 -  4) =      4.89794  eV     1   --> A''            
     e(  5 -  5) =      7.24390  eV     1   --> A''            
     e(  6 -  6) =      7.35181  eV     1   --> A'             
     e(  7 -  7) =      7.60554  eV     1   --> A'             
     e(  8 -  8) =      7.71518  eV     1   --> A''            

 **************************************************************************

 **************************************************************************

                    xk=(   0.00000,   0.10000,   0.06000  )

     Band symmetry, C_s (m)     point group:

     e(  1 -  1) =     -6.10888  eV     1   --> A'             
     e(  2 -  2) =      4.42272  eV     1   --> A''            
     e(  3 -  3) =      4.77526  eV     1   --> A'             
     e(  4 -  4) =      4.93160  eV     1   --> A''            
     e(  5 -  5) =      7.22262  eV     1   --> A''            
     e(  6 -  6) =      7.39380  eV     1   --> A'             
     e(  7 -  7) =      7.58677  eV     1   --> A'             
     e(  8 -  8) =      7.80787  eV     1   --> A''            

 **************************************************************************

 **************************************************************************

                    xk=(   0.00000,   0.10000,   0.08000  )

     Band symmetry, C_s (m)     point group:

     e(  1 -  1) =     -6.09788  eV     1   --> A'             
     e(  2 -  2) =      4.31197  eV     1   --> A''            
     e(  3 -  3) =      4.73125  eV     1   --> A'             
     e(  4 -  4) =      4.94972  eV     1   --> A''            
     e(  5 -  5) =      7.21396  eV     1   --> A''            
     e(  6 -  6) =      7.44845  eV     1   --> A'             
     e(  7 -  7) =      7.56241  eV     1   --> A'             
     e(  8 -  8) =      7.91365  eV     1   --> A''            

 **************************************************************************

 **************************************************************************

                    xk=(   0.00000,   0.10000,   0.10000  )

     point group C_2v (mm2) 
     there are  4 classes
     the character table:

       E     C2    s_v   s_v' 
A_1    1.00  1.00  1.00  1.00
A_2    1.00  1.00 -1.00 -1.00
B_1    1.00 -1.00  1.00 -1.00
B_2    1.00 -1.00 -1.00  1.00

     the symmetry operations in each class and the name of the first element:

     E        1
                                                                 
     C2       2
                                                                 
     s_v      4
                                                                 
     s_v'     3
                                                                 

     Band symmetry, C_2v (mm2)  point group:

     e(  1 -  1) =     -6.08464  eV     1   --> A_1  D_1  S_1  
     e(  2 -  2) =      4.19447  eV     1   --> B_1  D_3  S_3  
     e(  3 -  3) =      4.67753  eV     1   --> A_1  D_1  S_1  
     e(  4 -  4) =      4.95061  eV     1   --> A_2  D_2  S_2  
     e(  5 -  5) =      7.22330  eV     1   --> B_1  D_3  S_3  
     e(  6 -  6) =      7.49894  eV     1   --> B_2  D_4  S_4  
     e(  7 -  7) =      7.54956  eV     1   --> A_1  D_1  S_1  
     e(  8 -  8) =      8.02953  eV     1   --> B_1  D_3  S_3  

 **************************************************************************

 **************************************************************************

                    xk=(   0.00000,   0.10000,   0.12000  )

     point group C_s (m)    
     there are  2 classes
     the character table:

       E     s    
A'     1.00  1.00
A''    1.00 -1.00

     the symmetry operations in each class and the name of the first element:

     E        1
                                                                 
     s        2
                                                                 

     Band symmetry, C_s (m)     point group:

     e(  1 -  1) =     -6.06648  eV     1   --> A'             
     e(  2 -  2) =      4.07135  eV     1   --> A''            
     e(  3 -  3) =      4.61576  eV     1   --> A'             
     e(  4 -  4) =      4.93342  eV     1   --> A''            
     e(  5 -  5) =      7.25175  eV     1   --> A''            
     e(  6 -  6) =      7.47790  eV     1   --> A'             
     e(  7 -  7) =      7.61541  eV     1   --> A'             
     e(  8 -  8) =      8.15470  eV     1   --> A''            

 **************************************************************************

 **************************************************************************

                    xk=(   0.00000,   0.10000,   0.14000  )

     Band symmetry, C_s (m)     point group:

     e(  1 -  1) =     -6.04608  eV     1   --> A'             
     e(  2 -  2) =      3.94370  eV     1   --> A''            
     e(  3 -  3) =      4.54726  eV     1   --> A'             
     e(  4 -  4) =      4.89916  eV     1   --> A''            
     e(  5 -  5) =      7.29820  eV     1   --> A''            
     e(  6 -  6) =      7.43500  eV     1   --> A'             
     e(  7 -  7) =      7.70772  eV     1   --> A'             
     e(  8 -  8) =      8.28229  eV     1   --> A''            

 **************************************************************************

 **************************************************************************

                    xk=(   0.00000,   0.10000,   0.16000  )

     Band symmetry, C_s (m)     point group:

     e(  1 -  1) =     -6.02255  eV     1   --> A'             
     e(  2 -  2) =      3.81242  eV     1   --> A''            
     e(  3 -  3) =      4.47348  eV     1   --> A'             
     e(  4 -  4) =      4.84984  eV     1   --> A''            
     e(  5 -  5) =      7.36104  eV     1   --> A''            
     e(  6 -  6) =      7.38566  eV     1   --> A'             
     e(  7 -  7) =      7.81086  eV     1   --> A'             
     e(  8 -  8) =      8.41164  eV     1   --> A''            

 **************************************************************************

 **************************************************************************

                    xk=(   0.00000,   0.10000,   0.18000  )

     Band symmetry, C_s (m)     point group:

     e(  1 -  1) =     -5.99501  eV     1   --> A'             
     e(  2 -  2) =      3.67963  eV     1   --> A''            
     e(  3 -  3) =      4.39574  eV     1   --> A'             
     e(  4 -  4) =      4.78869  eV     1   --> A''            
     e(  5 -  5) =      7.33313  eV     1   --> A'             
     e(  6 -  6) =      7.43835  eV     1   --> A''            
     e(  7 -  7) =      7.92283  eV     1   --> A'             
     e(  8 -  8) =      8.54306  eV     1   --> A''            

 **************************************************************************

 **************************************************************************

                    xk=(   0.00000,   0.10000,   0.20000  )

     Band symmetry, C_s (m)     point group:

     e(  1 -  1) =     -5.96525  eV     1   --> A'             
     e(  2 -  2) =      3.54289  eV     1   --> A''            
     e(  3 -  3) =      4.31489  eV     1   --> A'             
     e(  4 -  4) =      4.71659  eV     1   --> A''            
     e(  5 -  5) =      7.27550  eV     1   --> A'             
     e(  6 -  6) =      7.52653  eV     1   --> A''            
     e(  7 -  7) =      8.04153  eV     1   --> A'             
     e(  8 -  8) =      8.66962  eV     1   --> A''            

 **************************************************************************

 **************************************************************************

                    xk=(   0.00000,   0.10000,   0.22000  )

     Band symmetry, C_s (m)     point group:

     e(  1 -  1) =     -5.93237  eV     1   --> A'             
     e(  2 -  2) =      3.40401  eV     1   --> A''            
     e(  3 -  3) =      4.23194  eV     1   --> A'             
     e(  4 -  4) =      4.63662  eV     1   --> A''            
     e(  5 -  5) =      7.21494  eV     1   --> A'             
     e(  6 -  6) =      7.62347  eV     1   --> A''            
     e(  7 -  7) =      8.16634  eV     1   --> A'             
     e(  8 -  8) =      8.79134  eV     1   --> A''            

 **************************************************************************

 **************************************************************************

                    xk=(   0.00000,   0.10000,   0.24000  )

     Band symmetry, C_s (m)     point group:

     e(  1 -  1) =     -5.89549  eV     1   --> A'             
     e(  2 -  2) =      3.26400  eV     1   --> A''            
     e(  3 -  3) =      4.14788  eV     1   --> A'             
     e(  4 -  4) =      4.55082  eV     1   --> A''            
     e(  5 -  5) =      7.15242  eV     1   --> A'             
     e(  6 -  6) =      7.72672  eV     1   --> A''            
     e(  7 -  7) =      8.29651  eV     1   --> A'             
     e(  8 -  8) =      8.90636  eV     1   --> A''            

 **************************************************************************

 **************************************************************************

                    xk=(   0.00000,   0.10000,   0.26000  )

     Band symmetry, C_s (m)     point group:

     e(  1 -  1) =     -5.85519  eV     1   --> A'             
     e(  2 -  2) =      3.12032  eV     1   --> A''            
     e(  3 -  3) =      4.06274  eV     1   --> A'             
     e(  4 -  4) =      4.46025  eV     1   --> A''            
     e(  5 -  5) =      7.08728  eV     1   --> A'             
     e(  6 -  6) =      7.83345  eV     1   --> A''            
     e(  7 -  7) =      8.43002  eV     1   --> A'             
     e(  8 -  8) =      9.00955  eV     1   --> A''            

 **************************************************************************

 **************************************************************************

                    xk=(   0.00000,   0.10000,   0.28000  )

     Band symmetry, C_s (m)     point group:

     e(  1 -  1) =     -5.81308  eV     1   --> A'             
     e(  2 -  2) =      2.97647  eV     1   --> A''            
     e(  3 -  3) =      3.97749  eV     1   --> A'             
     e(  4 -  4) =      4.36741  eV     1   --> A''            
     e(  5 -  5) =      7.02162  eV     1   --> A'             
     e(  6 -  6) =      7.94168  eV     1   --> A''            
     e(  7 -  7) =      8.56872  eV     1   --> A'             
     e(  8 -  8) =      9.09924  eV     1   --> A''            

 **************************************************************************

 **************************************************************************

                    xk=(   0.00000,   0.10000,   0.30000  )

     Band symmetry, C_s (m)     point group:

     e(  1 -  1) =     -5.76556  eV     1   --> A'             
     e(  2 -  2) =      2.83147  eV     1   --> A''            
     e(  3 -  3) =      3.89248  eV     1   --> A'             
     e(  4 -  4) =      4.27340  eV     1   --> A''            
     e(  5 -  5) =      6.95529  eV     1   --> A'             
     e(  6 -  6) =      8.04792  eV     1   --> A''            
     e(  7 -  7) =      8.71099  eV     1   --> A'             
     e(  8 -  8) =      9.17265  eV     1   --> A''            

 **************************************************************************

 **************************************************************************

                    xk=(   0.00000,   0.10000,   0.32000  )

     Band symmetry, C_s (m)     point group:

     e(  1 -  1) =     -5.71623  eV     1   --> A'             
     e(  2 -  2) =      2.68518  eV     1   --> A''            
     e(  3 -  3) =      3.80837  eV     1   --> A'             
     e(  4 -  4) =      4.17806  eV     1   --> A''            
     e(  5 -  5) =      6.88874  eV     1   --> A'             
     e(  6 -  6) =      8.14824  eV     1   --> A''            
     e(  7 -  7) =      8.85644  eV     1   --> A'             
     e(  8 -  8) =      9.22888  eV     1   --> A''            

 **************************************************************************

 **************************************************************************

                    xk=(   0.00000,   0.10000,   0.34000  )

     Band symmetry, C_s (m)     point group:

     e(  1 -  1) =     -5.66502  eV     1   --> A'             
     e(  2 -  2) =      2.53783  eV     1   --> A''            
     e(  3 -  3) =      3.72490  eV     1   --> A'             
     e(  4 -  4) =      4.08265  eV     1   --> A''            
     e(  5 -  5) =      6.82234  eV     1   --> A'             
     e(  6 -  6) =      8.23746  eV     1   --> A''            
     e(  7 -  7) =      9.00462  eV     1   --> A'             
     e(  8 -  8) =      9.27074  eV     1   --> A''            

 **************************************************************************

 **************************************************************************

                    xk=(   0.00000,   0.10000,   0.36000  )

     Band symmetry, C_s (m)     point group:

     e(  1 -  1) =     -5.61078  eV     1   --> A'             
     e(  2 -  2) =      2.38953  eV     1   --> A''            
     e(  3 -  3) =      3.64264  eV     1   --> A'             
     e(  4 -  4) =      3.98775  eV     1   --> A''            
     e(  5 -  5) =      6.75647  eV     1   --> A'             
     e(  6 -  6) =      8.30886  eV     1   --> A''            
     e(  7 -  7) =      9.15527  eV     1   --> A'             
     e(  8 -  8) =      9.30534  eV     1   --> A''            

 **************************************************************************

 **************************************************************************

                    xk=(   0.00000,   0.10000,   0.38000  )

     Band symmetry, C_s (m)     point group:

     e(  1 -  1) =     -5.55351  eV     1   --> A'             
     e(  2 -  2) =      2.24035  eV     1   --> A''            
     e(  3 -  3) =      3.56181  eV     1   --> A'             
     e(  4 -  4) =      3.89384  eV     1   --> A''            
     e(  5 -  5) =      6.69145  eV     1   --> A'             
     e(  6 -  6) =      8.35464  eV     1   --> A''            
     e(  7 -  7) =      9.30816  eV     1   --> A'             
     e(  8 -  8) =      9.34308  eV     1   --> A''            

 **************************************************************************

 **************************************************************************

                    xk=(   0.00000,   0.10000,   0.40000  )

     Band symmetry, C_s (m)     point group:

     e(  1 -  1) =     -5.49324  eV     1   --> A'             
     e(  2 -  2) =      2.09037  eV     1   --> A''            
     e(  3 -  3) =      3.48261  eV     1   --> A'             
     e(  4 -  4) =      3.80131  eV     1   --> A''            
     e(  5 -  5) =      6.62756  eV     1   --> A'             
     e(  6 -  6) =      8.36867  eV     1   --> A''            
     e(  7 -  7) =      9.39432  eV     1   --> A''            
     e(  8 -  8) =      9.46305  eV     1   --> A'             

 **************************************************************************

 **************************************************************************

                    xk=(   0.00000,   0.10000,   0.42000  )

     Band symmetry, C_s (m)     point group:

     e(  1 -  1) =     -5.42998  eV     1   --> A'             
     e(  2 -  2) =      1.93966  eV     1   --> A''            
     e(  3 -  3) =      3.40520  eV     1   --> A'             
     e(  4 -  4) =      3.71048  eV     1   --> A''            
     e(  5 -  5) =      6.56507  eV     1   --> A'             
     e(  6 -  6) =      8.34931  eV     1   --> A''            
     e(  7 -  7) =      9.46510  eV     1   --> A''            
     e(  8 -  8) =      9.61974  eV     1   --> A'             

 **************************************************************************

 **************************************************************************

                    xk=(   0.00000,   0.10000,   0.44000  )

     Band symmetry, C_s (m)     point group:

     e(  1 -  1) =     -5.36375  eV     1   --> A'             
     e(  2 -  2) =      1.78829  eV     1   --> A''            
     e(  3 -  3) =      3.32974  eV     1   --> A'             
     e(  4 -  4) =      3.62160  eV     1   --> A''            
     e(  5 -  5) =      6.50420  eV     1   --> A'             
     e(  6 -  6) =      8.30025  eV     1   --> A''            
     e(  7 -  7) =      9.55581  eV     1   --> A''            
     e(  8 -  8) =      9.77804  eV     1   --> A'             

 **************************************************************************

 **************************************************************************

                    xk=(   0.00000,   0.10000,   0.46000  )

     Band symmetry, C_s (m)     point group:

     e(  1 -  1) =     -5.29456  eV     1   --> A'             
     e(  2 -  2) =      1.63632  eV     1   --> A''            
     e(  3 -  3) =      3.25635  eV     1   --> A'             
     e(  4 -  4) =      3.53488  eV     1   --> A''            
     e(  5 -  5) =      6.44518  eV     1   --> A'             
     e(  6 -  6) =      8.22810  eV     1   --> A''            
     e(  7 -  7) =      9.66328  eV     1   --> A''            
     e(  8 -  8) =      9.93780  eV     1   --> A'             

 **************************************************************************

 **************************************************************************

                    xk=(   0.00000,   0.10000,   0.48000  )

     Band symmetry, C_s (m)     point group:

     e(  1 -  1) =     -5.22245  eV     1   --> A'             
     e(  2 -  2) =      1.48383  eV     1   --> A''            
     e(  3 -  3) =      3.18515  eV     1   --> A'             
     e(  4 -  4) =      3.45051  eV     1   --> A''            
     e(  5 -  5) =      6.38819  eV     1   --> A'             
     e(  6 -  6) =      8.13949  eV     1   --> A''            
     e(  7 -  7) =      9.78349  eV     1   --> A''            
     e(  8 -  8) =     10.09889  eV     1   --> A'             

 **************************************************************************

 **************************************************************************

                    xk=(   0.00000,   0.10000,   0.50000  )

     Band symmetry, C_s (m)     point group:

     e(  1 -  1) =     -5.14885  eV     1   --> A'             
     e(  2 -  2) =      1.32869  eV     1   --> A''            
     e(  3 -  3) =      3.11613  eV     1   --> A'             
     e(  4 -  4) =      3.36774  eV     1   --> A''            
     e(  5 -  5) =      6.33218  eV     1   --> A'             
     e(  6 -  6) =      8.03919  eV     1   --> A''            
     e(  7 -  7) =      9.91204  eV     1   --> A''            
     e(  8 -  8) =     10.26011  eV     1   --> A'             

 **************************************************************************

 **************************************************************************

                    xk=(   0.00000,   0.10000,   0.52000  )

     Band symmetry, C_s (m)     point group:

     e(  1 -  1) =     -5.06968  eV     1   --> A'             
     e(  2 -  2) =      1.17530  eV     1   --> A''            
     e(  3 -  3) =      3.05013  eV     1   --> A'             
     e(  4 -  4) =      3.28848  eV     1   --> A''            
     e(  5 -  5) =      6.27989  eV     1   --> A'             
     e(  6 -  6) =      7.93255  eV     1   --> A''            
     e(  7 -  7) =     10.04836  eV     1   --> A''            
     e(  8 -  8) =     10.42351  eV     1   --> A'             

 **************************************************************************

 **************************************************************************

                    xk=(   0.00000,   0.10000,   0.54000  )

     Band symmetry, C_s (m)     point group:

     e(  1 -  1) =     -4.98893  eV     1   --> A'             
     e(  2 -  2) =      1.02161  eV     1   --> A''            
     e(  3 -  3) =      2.98602  eV     1   --> A'             
     e(  4 -  4) =      3.21193  eV     1   --> A''            
     e(  5 -  5) =      6.22998  eV     1   --> A'             
     e(  6 -  6) =      7.82191  eV     1   --> A''            
     e(  7 -  7) =     10.18977  eV     1   --> A''            
     e(  8 -  8) =     10.58780  eV     1   --> A'             

 **************************************************************************

 **************************************************************************

                    xk=(   0.00000,   0.10000,   0.56000  )

     Band symmetry, C_s (m)     point group:

     e(  1 -  1) =     -4.90597  eV     1   --> A'             
     e(  2 -  2) =      0.86642  eV     1   --> A''            
     e(  3 -  3) =      2.92441  eV     1   --> A'             
     e(  4 -  4) =      3.13816  eV     1   --> A''            
     e(  5 -  5) =      6.18022  eV     1   --> A'             
     e(  6 -  6) =      7.70707  eV     1   --> A''            
     e(  7 -  7) =     10.33496  eV     1   --> A''            
     e(  8 -  8) =     10.75267  eV     1   --> A'             

 **************************************************************************

 **************************************************************************

                    xk=(   0.00000,   0.10000,   0.58000  )

     Band symmetry, C_s (m)     point group:

     e(  1 -  1) =     -4.82024  eV     1   --> A'             
     e(  2 -  2) =      0.71120  eV     1   --> A''            
     e(  3 -  3) =      2.86513  eV     1   --> A'             
     e(  4 -  4) =      3.06720  eV     1   --> A''            
     e(  5 -  5) =      6.13341  eV     1   --> A'             
     e(  6 -  6) =      7.59180  eV     1   --> A''            
     e(  7 -  7) =     10.48231  eV     1   --> A''            
     e(  8 -  8) =     10.91801  eV     1   --> A'             

 **************************************************************************

 **************************************************************************

                    xk=(   0.00000,   0.10000,   0.60000  )

     Band symmetry, C_s (m)     point group:

     e(  1 -  1) =     -4.73109  eV     1   --> A'             
     e(  2 -  2) =      0.55710  eV     1   --> A''            
     e(  3 -  3) =      2.80877  eV     1   --> A'             
     e(  4 -  4) =      2.99926  eV     1   --> A''            
     e(  5 -  5) =      6.09160  eV     1   --> A'             
     e(  6 -  6) =      7.48389  eV     1   --> A''            
     e(  7 -  7) =     10.63297  eV     1   --> A''            
     e(  8 -  8) =     11.08465  eV     1   --> A'             

 **************************************************************************

 **************************************************************************

                    xk=(   0.00000,   0.10000,   0.62000  )

     Band symmetry, C_s (m)     point group:

     e(  1 -  1) =     -4.63918  eV     1   --> A'             
     e(  2 -  2) =      0.40285  eV     1   --> A''            
     e(  3 -  3) =      2.75509  eV     1   --> A'             
     e(  4 -  4) =      2.93423  eV     1   --> A''            
     e(  5 -  5) =      6.05276  eV     1   --> A'             
     e(  6 -  6) =      7.37327  eV     1   --> A''            
     e(  7 -  7) =     10.78565  eV     1   --> A''            
     e(  8 -  8) =     11.25181  eV     1   --> A'             

 **************************************************************************

 **************************************************************************

                    xk=(   0.00000,   0.10000,   0.64000  )

     Band symmetry, C_s (m)     point group:

     e(  1 -  1) =     -4.54455  eV     1   --> A'             
     e(  2 -  2) =      0.24870  eV     1   --> A''            
     e(  3 -  3) =      2.70416  eV     1   --> A'             
     e(  4 -  4) =      2.87221  eV     1   --> A''            
     e(  5 -  5) =      6.01700  eV     1   --> A'             
     e(  6 -  6) =      7.26501  eV     1   --> A''            
     e(  7 -  7) =     10.93979  eV     1   --> A''            
     e(  8 -  8) =     11.41950  eV     1   --> A'             

 **************************************************************************

 **************************************************************************

                    xk=(   0.00000,   0.10000,   0.66000  )

     Band symmetry, C_s (m)     point group:

     e(  1 -  1) =     -4.44724  eV     1   --> A'             
     e(  2 -  2) =      0.09472  eV     1   --> A''            
     e(  3 -  3) =      2.65600  eV     1   --> A'             
     e(  4 -  4) =      2.81322  eV     1   --> A''            
     e(  5 -  5) =      5.98441  eV     1   --> A'             
     e(  6 -  6) =      7.15951  eV     1   --> A''            
     e(  7 -  7) =     11.09535  eV     1   --> A''            
     e(  8 -  8) =     11.58754  eV     1   --> A'             

 **************************************************************************

 **************************************************************************

                    xk=(   0.00000,   0.10000,   0.68000  )

     Band symmetry, C_s (m)     point group:

     e(  1 -  1) =     -4.34727  eV     1   --> A'             
     e(  2 -  2) =     -0.05900  eV     1   --> A''            
     e(  3 -  3) =      2.61066  eV     1   --> A'             
     e(  4 -  4) =      2.75730  eV     1   --> A''            
     e(  5 -  5) =      5.95506  eV     1   --> A'             
     e(  6 -  6) =      7.05726  eV     1   --> A''            
     e(  7 -  7) =     11.25209  eV     1   --> A''            
     e(  8 -  8) =     11.75581  eV     1   --> A'             

 **************************************************************************

 **************************************************************************

                    xk=(   0.00000,   0.10000,   0.70000  )

     Band symmetry, C_s (m)     point group:

     e(  1 -  1) =     -4.24512  eV     1   --> A'             
     e(  2 -  2) =     -0.21547  eV     1   --> A''            
     e(  3 -  3) =      2.56814  eV     1   --> A'             
     e(  4 -  4) =      2.70418  eV     1   --> A''            
     e(  5 -  5) =      5.92884  eV     1   --> A'             
     e(  6 -  6) =      6.95803  eV     1   --> A''            
     e(  7 -  7) =     11.40599  eV     1   --> A''            
     e(  8 -  8) =     11.92407  eV     1   --> A'             

 **************************************************************************

 **************************************************************************

                    xk=(   0.00000,   0.10000,   0.72000  )

     Band symmetry, C_s (m)     point group:

     e(  1 -  1) =     -4.13996  eV     1   --> A'             
     e(  2 -  2) =     -0.36846  eV     1   --> A''            
     e(  3 -  3) =      2.52853  eV     1   --> A'             
     e(  4 -  4) =      2.65440  eV     1   --> A''            
     e(  5 -  5) =      5.90623  eV     1   --> A'             
     e(  6 -  6) =      6.86308  eV     1   --> A''            
     e(  7 -  7) =     11.56446  eV     1   --> A''            
     e(  8 -  8) =     12.09227  eV     1   --> A'             

 **************************************************************************

 **************************************************************************

                    xk=(   0.00000,   0.10000,   0.74000  )

     Band symmetry, C_s (m)     point group:

     e(  1 -  1) =     -4.02983  eV     1   --> A'             
     e(  2 -  2) =     -0.52090  eV     1   --> A''            
     e(  3 -  3) =      2.49218  eV     1   --> A'             
     e(  4 -  4) =      2.60903  eV     1   --> A''            
     e(  5 -  5) =      5.88728  eV     1   --> A'             
     e(  6 -  6) =      6.77317  eV     1   --> A''            
     e(  7 -  7) =     11.72420  eV     1   --> A''            
     e(  8 -  8) =     12.25969  eV     1   --> A'             

 **************************************************************************

 **************************************************************************

                    xk=(   0.00000,   0.10000,   0.76000  )

     Band symmetry, C_s (m)     point group:

     e(  1 -  1) =     -3.91972  eV     1   --> A'             
     e(  2 -  2) =     -0.67534  eV     1   --> A''            
     e(  3 -  3) =      2.45802  eV     1   --> A'             
     e(  4 -  4) =      2.56546  eV     1   --> A''            
     e(  5 -  5) =      5.87166  eV     1   --> A'             
     e(  6 -  6) =      6.68495  eV     1   --> A''            
     e(  7 -  7) =     11.88395  eV     1   --> A''            
     e(  8 -  8) =     12.42088  eV     1   --> A'             

 **************************************************************************

 **************************************************************************

                    xk=(   0.00000,   0.10000,   0.78000  )

     Band symmetry, C_s (m)     point group:

     e(  1 -  1) =     -3.80598  eV     1   --> A'             
     e(  2 -  2) =     -0.82561  eV     1   --> A''            
     e(  3 -  3) =      2.42740  eV     1   --> A'             
     e(  4 -  4) =      2.52530  eV     1   --> A''            
     e(  5 -  5) =      5.86026  eV     1   --> A'             
     e(  6 -  6) =      6.60604  eV     1   --> A''            
     e(  7 -  7) =     12.04715  eV     1   --> A''            
     e(  8 -  8) =     12.58849  eV     1   --> A'             

 **************************************************************************

 **************************************************************************

                    xk=(   0.00000,   0.10000,   0.80000  )

     Band symmetry, C_s (m)     point group:

     e(  1 -  1) =     -3.69153  eV     1   --> A'             
     e(  2 -  2) =     -0.97738  eV     1   --> A''            
     e(  3 -  3) =      2.39911  eV     1   --> A'             
     e(  4 -  4) =      2.48797  eV     1   --> A''            
     e(  5 -  5) =      5.85187  eV     1   --> A'             
     e(  6 -  6) =      6.52718  eV     1   --> A''            
     e(  7 -  7) =     12.20735  eV     1   --> A''            
     e(  8 -  8) =     12.74914  eV     1   --> A'             

 **************************************************************************

 **************************************************************************

                    xk=(   0.00000,   0.10000,   0.82000  )

     Band symmetry, C_s (m)     point group:

     e(  1 -  1) =     -3.57285  eV     1   --> A'             
     e(  2 -  2) =     -1.12590  eV     1   --> A''            
     e(  3 -  3) =      2.37461  eV     1   --> A'             
     e(  4 -  4) =      2.45454  eV     1   --> A''            
     e(  5 -  5) =      5.84768  eV     1   --> A'             
     e(  6 -  6) =      6.45589  eV     1   --> A''            
     e(  7 -  7) =     12.36932  eV     1   --> A''            
     e(  8 -  8) =     12.91457  eV     1   --> A'             

 **************************************************************************

 **************************************************************************

                    xk=(   0.00000,   0.10000,   0.84000  )

     Band symmetry, C_s (m)     point group:

     e(  1 -  1) =     -3.45190  eV     1   --> A'             
     e(  2 -  2) =     -1.27535  eV     1   --> A''            
     e(  3 -  3) =      2.35321  eV     1   --> A'             
     e(  4 -  4) =      2.42366  eV     1   --> A''            
     e(  5 -  5) =      5.84705  eV     1   --> A'             
     e(  6 -  6) =      6.38653  eV     1   --> A''            
     e(  7 -  7) =     12.52642  eV     1   --> A''            
     e(  8 -  8) =     13.07105  eV     1   --> A'             

 **************************************************************************

 **************************************************************************

                    xk=(   0.00000,   0.10000,   0.86000  )

     Band symmetry, C_s (m)     point group:

     e(  1 -  1) =     -3.33058  eV     1   --> A'             
     e(  2 -  2) =     -1.42405  eV     1   --> A''            
     e(  3 -  3) =      2.33409  eV     1   --> A'             
     e(  4 -  4) =      2.39570  eV     1   --> A''            
     e(  5 -  5) =      5.84984  eV     1   --> A'             
     e(  6 -  6) =      6.32055  eV     1   --> A''            
     e(  7 -  7) =     12.68464  eV     1   --> A''            
     e(  8 -  8) =     13.21781  eV     1   --> A'             

 **************************************************************************

 **************************************************************************

                    xk=(   0.00000,   0.10000,   0.88000  )

     Band symmetry, C_s (m)     point group:

     e(  1 -  1) =     -3.20662  eV     1   --> A'             
     e(  2 -  2) =     -1.57038  eV     1   --> A''            
     e(  3 -  3) =      2.31824  eV     1   --> A'             
     e(  4 -  4) =      2.37095  eV     1   --> A''            
     e(  5 -  5) =      5.85683  eV     1   --> A'             
     e(  6 -  6) =      6.25897  eV     1   --> A''            
     e(  7 -  7) =     12.84117  eV     1   --> A''            
     e(  8 -  8) =     13.35810  eV     1   --> A'             

 **************************************************************************

 **************************************************************************

                    xk=(   0.00000,   0.10000,   0.90000  )

     Band symmetry, C_s (m)     point group:

     e(  1 -  1) =     -3.08051  eV     1   --> A'             
     e(  2 -  2) =     -1.71477  eV     1   --> A''            
     e(  3 -  3) =      2.30553  eV     1   --> A'             
     e(  4 -  4) =      2.34951  eV     1   --> A''            
     e(  5 -  5) =      5.86805  eV     1   --> A'             
     e(  6 -  6) =      6.20347  eV     1   --> A''            
     e(  7 -  7) =     12.99483  eV     1   --> A''            
     e(  8 -  8) =     13.48668  eV     1   --> A'             

 **************************************************************************

 **************************************************************************

                    xk=(   0.00000,   0.10000,   0.92000  )

     Band symmetry, C_s (m)     point group:

     e(  1 -  1) =     -2.95233  eV     1   --> A'             
     e(  2 -  2) =     -1.85851  eV     1   --> A''            
     e(  3 -  3) =      2.29584  eV     1   --> A'             
     e(  4 -  4) =      2.33107  eV     1   --> A''            
     e(  5 -  5) =      5.88300  eV     1   --> A'             
     e(  6 -  6) =      6.15060  eV     1   --> A''            
     e(  7 -  7) =     13.14398  eV     1   --> A''            
     e(  8 -  8) =     13.59053  eV     1   --> A'             

 **************************************************************************

 **************************************************************************

                    xk=(   0.00000,   0.10000,   0.94000  )

     Band symmetry, C_s (m)     point group:

     e(  1 -  1) =     -2.82261  eV     1   --> A'             
     e(  2 -  2) =     -2.00135  eV     1   --> A''            
     e(  3 -  3) =      2.28924  eV     1   --> A'             
     e(  4 -  4) =      2.31564  eV     1   --> A''            
     e(  5 -  5) =      5.90209  eV     1   --> A'             
     e(  6 -  6) =      6.10365  eV     1   --> A''            
     e(  7 -  7) =     13.28574  eV     1   --> A''            
     e(  8 -  8) =     13.66328  eV     1   --> A'             

 **************************************************************************

 **************************************************************************

                    xk=(   0.00000,   0.10000,   0.96000  )

     Band symmetry, C_s (m)     point group:

     e(  1 -  1) =     -2.68891  eV     1   --> A'             
     e(  2 -  2) =     -2.14220  eV     1   --> A''            
     e(  3 -  3) =      2.28626  eV     1   --> A'             
     e(  4 -  4) =      2.30348  eV     1   --> A''            
     e(  5 -  5) =      5.92518  eV     1   --> A'             
     e(  6 -  6) =      6.05943  eV     1   --> A''            
     e(  7 -  7) =     13.41731  eV     1   --> A''            
     e(  8 -  8) =     13.69551  eV     1   --> A'             

 **************************************************************************

 **************************************************************************

                    xk=(   0.00000,   0.10000,   0.98000  )

     Band symmetry, C_s (m)     point group:

     e(  1 -  1) =     -2.55488  eV     1   --> A'             
     e(  2 -  2) =     -2.28145  eV     1   --> A''            
     e(  3 -  3) =      2.28587  eV     1   --> A'             
     e(  4 -  4) =      2.29447  eV     1   --> A''            
     e(  5 -  5) =      5.95243  eV     1   --> A'             
     e(  6 -  6) =      6.01952  eV     1   --> A''            
     e(  7 -  7) =     13.53259  eV     1   --> A''            
     e(  8 -  8) =     13.68127  eV     1   --> A'             

 **************************************************************************

 **************************************************************************

                    xk=(   0.00000,   0.10000,   1.00000  )

     zone border point and non-symmorphic group 
     symmetry decomposition not available

 **************************************************************************

     BANDS        :      0.15s CPU      0.16s WALL


   This run was terminated on:  17:16: 9  22Mar2023            

=------------------------------------------------------------------------------=
   JOB DONE.
=------------------------------------------------------------------------------=
