
     Program BANDS v.6.7MaX starts on 23Feb2023 at 17:39:55 

     This program is part of the open-source Quantum ESPRESSO suite
     for quantum simulation of materials; please cite
         "P. Giannozzi et al., J. Phys.:Condens. Matter 21 395502 (2009);
         "P. Giannozzi et al., J. Phys.:Condens. Matter 29 465901 (2017);
          URL http://www.quantum-espresso.org", 
     in publications or presentations arising from this work. More details at
     http://www.quantum-espresso.org/quote

     Parallel version (MPI), running on     1 processors

     MPI processes distributed on     1 nodes

     Reading xml data from directory:

     tmp/silicon.save/

     IMPORTANT: XC functional enforced from input :
     Exchange-correlation= PZ
                           (   1   1   0   0   0   0   0)
     Any further DFT definition will be discarded
     Please, verify this is what you really want


     G-vector sticks info
     --------------------
     sticks:   dense  smooth     PW     G-vecs:    dense   smooth      PW
     Sum         283     283    109                 3143     3143     725

     Reading collected, re-writing distributed wavefunctions
     high-symmetry point:  0.5000 0.5000 0.5000   x coordinate   0.0000
     high-symmetry point:  0.0000 0.0000 0.0000   x coordinate   0.8660
     high-symmetry point:  0.8000 0.0000 0.1000   x coordinate   1.6723
     high-symmetry point:  0.8000 0.0000 1.0000   x coordinate   2.5723
     high-symmetry point:  0.8000 1.0000 1.0000   x coordinate   3.5723
     high-symmetry point:  0.8000 0.0000 0.0000   x coordinate   4.9865

     Plottable bands (eV) written to file si_bands.dat.gnu
     Bands written to file si_bands.dat

 **************************************************************************

                    xk=(   0.50000,   0.50000,   0.50000  )

     zone border point and non-symmorphic group 
     symmetry decomposition not available

 **************************************************************************

 **************************************************************************

                    xk=(   0.40000,   0.40000,   0.40000  )

     point group C_3v (3m)  
     there are  3 classes
     the character table:

       E     2C3   3s_v 
A_1    1.00  1.00  1.00
A_2    1.00  1.00 -1.00
E      2.00 -1.00  0.00

     the symmetry operations in each class and the name of the first element:

     E        1
                                                                 
     2C3      2    3
                                                                 
     3s_v     4    5    6
                                                                 

     Band symmetry, C_3v (3m)   point group:

     e(  1 -  1) =     -3.86519  eV     1   --> A_1  L_1       
     e(  2 -  2) =     -0.07771  eV     1   --> A_1  L_1       
     e(  3 -  4) =      5.13320  eV     2   --> E    L_3       
     e(  5 -  5) =      7.91580  eV     1   --> A_1  L_1       
     e(  6 -  7) =      9.68342  eV     2   --> E    L_3       
     e(  8 -  8) =     13.96228  eV     1   --> A_1  L_1       

 **************************************************************************

 **************************************************************************

                    xk=(   0.30000,   0.30000,   0.30000  )

     Band symmetry, C_3v (3m)   point group:

     e(  1 -  1) =     -4.63378  eV     1   --> A_1  L_1       
     e(  2 -  2) =      1.43140  eV     1   --> A_1  L_1       
     e(  3 -  4) =      5.34950  eV     2   --> E    L_3       
     e(  5 -  5) =      8.15316  eV     1   --> A_1  L_1       
     e(  6 -  7) =      9.81318  eV     2   --> E    L_3       
     e(  8 -  8) =     13.86456  eV     1   --> A_1  L_1       

 **************************************************************************

 **************************************************************************

                    xk=(   0.20000,   0.20000,   0.20000  )

     Band symmetry, C_3v (3m)   point group:

     e(  1 -  1) =     -5.26100  eV     1   --> A_1  L_1       
     e(  2 -  2) =      3.24792  eV     1   --> A_1  L_1       
     e(  3 -  4) =      5.69199  eV     2   --> E    L_3       
     e(  5 -  5) =      8.51648  eV     1   --> A_1  L_1       
     e(  6 -  7) =      9.65136  eV     2   --> E    L_3       
     e(  8 -  8) =     12.36520  eV     1   --> A_1  L_1       

 **************************************************************************

 **************************************************************************

                    xk=(   0.10000,   0.10000,   0.10000  )

     Band symmetry, C_3v (3m)   point group:

     e(  1 -  1) =     -5.65481  eV     1   --> A_1  L_1       
     e(  2 -  2) =      5.13370  eV     1   --> A_1  L_1       
     e(  3 -  4) =      6.08104  eV     2   --> E    L_3       
     e(  5 -  5) =      8.86576  eV     1   --> A_1  L_1       
     e(  6 -  7) =      9.13507  eV     2   --> E    L_3       
     e(  8 -  8) =     10.64619  eV     1   --> A_1  L_1       

 **************************************************************************

 **************************************************************************

                    xk=(   0.00000,   0.00000,   0.00000  )

     point group O_h (m-3m) 
     there are 10 classes
     the character table:

       E     8C3   3C2   6C4   6C2'  i     8S6   3s_h  6S4   6s_d 
A_1g   1.00  1.00  1.00  1.00  1.00  1.00  1.00  1.00  1.00  1.00
A_2g   1.00  1.00  1.00 -1.00 -1.00  1.00  1.00  1.00 -1.00 -1.00
E_g    2.00 -1.00  2.00  0.00  0.00  2.00 -1.00  2.00  0.00  0.00
T_1g   3.00  0.00 -1.00  1.00 -1.00  3.00  0.00 -1.00  1.00 -1.00
T_2g   3.00  0.00 -1.00 -1.00  1.00  3.00  0.00 -1.00 -1.00  1.00
A_1u   1.00  1.00  1.00  1.00  1.00 -1.00 -1.00 -1.00 -1.00 -1.00
A_2u   1.00  1.00  1.00 -1.00 -1.00 -1.00 -1.00 -1.00  1.00  1.00
E_u    2.00 -1.00  2.00  0.00  0.00 -2.00  1.00 -2.00  0.00  0.00
T_1u   3.00  0.00 -1.00  1.00 -1.00 -3.00  0.00  1.00 -1.00  1.00
T_2u   3.00  0.00 -1.00 -1.00  1.00 -3.00  0.00  1.00  1.00 -1.00

     the symmetry operations in each class and the name of the first element:

     E        1
                                                                 
     8C3     17   19   20   18   24   21   22   23
                                                                 
     3C2      2    4    3
                                                                 
     6C4      7    8   15   16   12   11
                                                                 
     6C2'     5    6   14   13   10    9
                                                                 
     i       25
                                                                 
     8S6     41   43   44   42   48   45   46   47
                                                                 
     3s_h    26   28   27
                                                                 
     6S4     31   32   39   40   36   35
                                                                 
     6s_d    29   30   38   37   34   33
                                                                 

     Band symmetry, O_h (m-3m)  point group:

     e(  1 -  1) =     -5.78870  eV     1   --> A_1g G_1   G_1+
     e(  2 -  4) =      6.28498  eV     3   --> T_2g G_25' G_5+
     e(  5 -  7) =      8.83459  eV     3   --> T_1u G_15  G_4-
     e(  8 -  8) =      9.75957  eV     1   --> A_2u G_2'  G_2-

 **************************************************************************

 **************************************************************************

                    xk=(   0.80000,   0.00000,   0.10000  )

     point group C_s (m)    
     there are  2 classes
     the character table:

       E     s    
A'     1.00  1.00
A''    1.00 -1.00

     the symmetry operations in each class and the name of the first element:

     E        1
                                                                 
     s        2
                                                                 

     Band symmetry, C_s (m)     point group:

     e(  1 -  1) =     -2.99844  eV     1   --> A'             
     e(  2 -  2) =      0.07566  eV     1   --> A''            
     e(  3 -  3) =      3.35448  eV     1   --> A'             
     e(  4 -  4) =      3.45244  eV     1   --> A''            
     e(  5 -  5) =      7.02930  eV     1   --> A'             
     e(  6 -  6) =      7.70776  eV     1   --> A''            
     e(  7 -  7) =     14.22097  eV     1   --> A''            
     e(  8 -  8) =     14.83437  eV     1   --> A'             

 **************************************************************************

 **************************************************************************

                    xk=(   0.80000,   0.00000,   0.20000  )

     Band symmetry, C_s (m)     point group:

     e(  1 -  1) =     -2.90584  eV     1   --> A'             
     e(  2 -  2) =      0.01153  eV     1   --> A''            
     e(  3 -  3) =      2.97348  eV     1   --> A'             
     e(  4 -  4) =      3.30789  eV     1   --> A''            
     e(  5 -  5) =      7.69781  eV     1   --> A'             
     e(  6 -  6) =      8.28273  eV     1   --> A''            
     e(  7 -  7) =     13.06755  eV     1   --> A''            
     e(  8 -  8) =     14.82891  eV     1   --> A'             

 **************************************************************************

 **************************************************************************

                    xk=(   0.80000,   0.00000,   0.30000  )

     Band symmetry, C_s (m)     point group:

     e(  1 -  1) =     -2.75980  eV     1   --> A'             
     e(  2 -  2) =     -0.11112  eV     1   --> A''            
     e(  3 -  3) =      2.55060  eV     1   --> A'             
     e(  4 -  4) =      3.20042  eV     1   --> A''            
     e(  5 -  5) =      8.60075  eV     1   --> A'             
     e(  6 -  6) =      9.10677  eV     1   --> A''            
     e(  7 -  7) =     11.83035  eV     1   --> A''            
     e(  8 -  8) =     14.80749  eV     1   --> A'             

 **************************************************************************

 **************************************************************************

                    xk=(   0.80000,   0.00000,   0.40000  )

     Band symmetry, C_s (m)     point group:

     e(  1 -  1) =     -2.57245  eV     1   --> A'             
     e(  2 -  2) =     -0.29258  eV     1   --> A''            
     e(  3 -  3) =      2.18229  eV     1   --> A'             
     e(  4 -  4) =      3.19849  eV     1   --> A''            
     e(  5 -  5) =      9.64255  eV     1   --> A'             
     e(  6 -  6) =      9.98985  eV     1   --> A''            
     e(  7 -  7) =     10.73446  eV     1   --> A''            
     e(  8 -  8) =     14.08378  eV     1   --> A'             

 **************************************************************************

 **************************************************************************

                    xk=(   0.80000,   0.00000,   0.50000  )

     Band symmetry, C_s (m)     point group:

     e(  1 -  1) =     -2.35940  eV     1   --> A'             
     e(  2 -  2) =     -0.51621  eV     1   --> A''            
     e(  3 -  3) =      1.92264  eV     1   --> A'             
     e(  4 -  4) =      3.30970  eV     1   --> A''            
     e(  5 -  5) =      9.36818  eV     1   --> A''            
     e(  6 -  6) =     10.75883  eV     1   --> A'             
     e(  7 -  7) =     11.35449  eV     1   --> A''            
     e(  8 -  8) =     12.84719  eV     1   --> A'             

 **************************************************************************

 **************************************************************************

                    xk=(   0.80000,   0.00000,   0.60000  )

     Band symmetry, C_s (m)     point group:

     e(  1 -  1) =     -2.14445  eV     1   --> A'             
     e(  2 -  2) =     -0.75524  eV     1   --> A''            
     e(  3 -  3) =      1.80799  eV     1   --> A'             
     e(  4 -  4) =      3.49203  eV     1   --> A''            
     e(  5 -  5) =      8.38628  eV     1   --> A''            
     e(  6 -  6) =     11.35842  eV     1   --> A'             
     e(  7 -  7) =     12.26586  eV     1   --> A'             
     e(  8 -  8) =     12.57138  eV     1   --> A''            

 **************************************************************************

 **************************************************************************

                    xk=(   0.80000,   0.00000,   0.70000  )

     Band symmetry, C_s (m)     point group:

     e(  1 -  1) =     -1.94967  eV     1   --> A'             
     e(  2 -  2) =     -0.98466  eV     1   --> A''            
     e(  3 -  3) =      1.86274  eV     1   --> A'             
     e(  4 -  4) =      3.65191  eV     1   --> A''            
     e(  5 -  5) =      7.61732  eV     1   --> A''            
     e(  6 -  6) =     10.39280  eV     1   --> A'             
     e(  7 -  7) =     13.36662  eV     1   --> A'             
     e(  8 -  8) =     13.86796  eV     1   --> A''            

 **************************************************************************

 **************************************************************************

                    xk=(   0.80000,   0.00000,   0.80000  )

     point group C_2v (mm2) 
     there are  4 classes
     the character table:

       E     C2    s_v   s_v' 
A_1    1.00  1.00  1.00  1.00
A_2    1.00  1.00 -1.00 -1.00
B_1    1.00 -1.00  1.00 -1.00
B_2    1.00 -1.00 -1.00  1.00

     the symmetry operations in each class and the name of the first element:

     E        1
                                                                 
     C2       2
                                                                 
     s_v      3
                                                                 
     s_v'     4
                                                                 

     Band symmetry, C_2v (mm2)  point group:

     e(  1 -  1) =     -1.78695  eV     1   --> A_1  D_1  S_1  
     e(  2 -  2) =     -1.19004  eV     1   --> B_2  D_4  S_4  
     e(  3 -  3) =      2.09027  eV     1   --> A_1  D_1  S_1  
     e(  4 -  4) =      3.64330  eV     1   --> A_2  D_2  S_2  
     e(  5 -  5) =      7.21990  eV     1   --> B_2  D_4  S_4  
     e(  6 -  6) =      9.38811  eV     1   --> A_1  D_1  S_1  
     e(  7 -  7) =     14.42517  eV     1   --> B_1  D_3  S_3  
     e(  8 -  8) =     14.97679  eV     1   --> A_1  D_1  S_1  

 **************************************************************************

 **************************************************************************

                    xk=(   0.80000,   0.00000,   0.90000  )

     point group C_s (m)    
     there are  2 classes
     the character table:

       E     s    
A'     1.00  1.00
A''    1.00 -1.00

     the symmetry operations in each class and the name of the first element:

     E        1
                                                                 
     s        2
                                                                 

     Band symmetry, C_s (m)     point group:

     e(  1 -  1) =     -1.64753  eV     1   --> A'             
     e(  2 -  2) =     -1.36577  eV     1   --> A''            
     e(  3 -  3) =      2.46538  eV     1   --> A'             
     e(  4 -  4) =      3.37239  eV     1   --> A''            
     e(  5 -  5) =      7.29663  eV     1   --> A''            
     e(  6 -  6) =      8.49621  eV     1   --> A'             
     e(  7 -  7) =     14.68208  eV     1   --> A'             
     e(  8 -  8) =     14.96606  eV     1   --> A''            

 **************************************************************************

 **************************************************************************

                    xk=(   0.80000,   0.00000,   1.00000  )

     zone border point and non-symmorphic group 
     symmetry decomposition not available

 **************************************************************************

 **************************************************************************

                    xk=(   0.80000,   0.10000,   1.00000  )

     zone border point and non-symmorphic group 
     symmetry decomposition not available

 **************************************************************************

 **************************************************************************

                    xk=(   0.80000,   0.20000,   1.00000  )

     zone border point and non-symmorphic group 
     symmetry decomposition not available

 **************************************************************************

 **************************************************************************

                    xk=(   0.80000,   0.30000,   1.00000  )

     zone border point and non-symmorphic group 
     symmetry decomposition not available

 **************************************************************************

 **************************************************************************

                    xk=(   0.80000,   0.40000,   1.00000  )

     zone border point and non-symmorphic group 
     symmetry decomposition not available

 **************************************************************************

 **************************************************************************

                    xk=(   0.80000,   0.50000,   1.00000  )

     zone border point and non-symmorphic group 
     symmetry decomposition not available

 **************************************************************************

 **************************************************************************

                    xk=(   0.80000,   0.60000,   1.00000  )

     zone border point and non-symmorphic group 
     symmetry decomposition not available

 **************************************************************************

 **************************************************************************

                    xk=(   0.80000,   0.70000,   1.00000  )

     zone border point and non-symmorphic group 
     symmetry decomposition not available

 **************************************************************************

 **************************************************************************

                    xk=(   0.80000,   0.80000,   1.00000  )

     zone border point and non-symmorphic group 
     symmetry decomposition not available

 **************************************************************************

 **************************************************************************

                    xk=(   0.80000,   0.90000,   1.00000  )

     zone border point and non-symmorphic group 
     symmetry decomposition not available

 **************************************************************************

 **************************************************************************

                    xk=(   0.80000,   1.00000,   1.00000  )

     zone border point and non-symmorphic group 
     symmetry decomposition not available

 **************************************************************************

 **************************************************************************

                    xk=(   0.80000,   0.90000,   0.90000  )

     point group C_s (m)    
     there are  2 classes
     the character table:

       E     s    
A'     1.00  1.00
A''    1.00 -1.00

     the symmetry operations in each class and the name of the first element:

     E        1
                                                                 
     s        2
                                                                 

     Band symmetry, C_s (m)     point group:

     e(  1 -  1) =     -5.52233  eV     1   --> A'             
     e(  2 -  2) =      4.49710  eV     1   --> A'             
     e(  3 -  3) =      5.69672  eV     1   --> A''            
     e(  4 -  4) =      5.92438  eV     1   --> A'             
     e(  5 -  5) =      8.79735  eV     1   --> A'             
     e(  6 -  6) =      9.19477  eV     1   --> A'             
     e(  7 -  7) =      9.64783  eV     1   --> A''            
     e(  8 -  8) =     11.21718  eV     1   --> A'             

 **************************************************************************

 **************************************************************************

                    xk=(   0.80000,   0.80000,   0.80000  )

     point group C_3v (3m)  
     there are  3 classes
     the character table:

       E     2C3   3s_v 
A_1    1.00  1.00  1.00
A_2    1.00  1.00 -1.00
E      2.00 -1.00  0.00

     the symmetry operations in each class and the name of the first element:

     E        1
                                                                 
     2C3      2    3
                                                                 
     3s_v     4    5    6
                                                                 

     Band symmetry, C_3v (3m)   point group:

     e(  1 -  1) =     -5.26100  eV     1   --> A_1  L_1       
     e(  2 -  2) =      3.24792  eV     1   --> A_1  L_1       
     e(  3 -  4) =      5.69199  eV     2   --> E    L_3       
     e(  5 -  5) =      8.51648  eV     1   --> A_1  L_1       
     e(  6 -  7) =      9.65136  eV     2   --> E    L_3       
     e(  8 -  8) =     12.36520  eV     1   --> A_1  L_1       

 **************************************************************************

 **************************************************************************

                    xk=(   0.80000,   0.70000,   0.70000  )

     point group C_s (m)    
     there are  2 classes
     the character table:

       E     s    
A'     1.00  1.00
A''    1.00 -1.00

     the symmetry operations in each class and the name of the first element:

     E        1
                                                                 
     s        2
                                                                 

     Band symmetry, C_s (m)     point group:

     e(  1 -  1) =     -4.83662  eV     1   --> A'             
     e(  2 -  2) =      2.02189  eV     1   --> A'             
     e(  3 -  3) =      5.02557  eV     1   --> A'             
     e(  4 -  4) =      5.60045  eV     1   --> A''            
     e(  5 -  5) =      8.47902  eV     1   --> A'             
     e(  6 -  6) =      9.69092  eV     1   --> A''            
     e(  7 -  7) =      9.96942  eV     1   --> A'             
     e(  8 -  8) =     12.99371  eV     1   --> A'             

 **************************************************************************

 **************************************************************************

                    xk=(   0.80000,   0.60000,   0.60000  )

     Band symmetry, C_s (m)     point group:

     e(  1 -  1) =     -4.26912  eV     1   --> A'             
     e(  2 -  2) =      0.93223  eV     1   --> A'             
     e(  3 -  3) =      4.19297  eV     1   --> A'             
     e(  4 -  4) =      5.35552  eV     1   --> A''            
     e(  5 -  5) =      8.71396  eV     1   --> A'             
     e(  6 -  6) =      9.89305  eV     1   --> A''            
     e(  7 -  7) =      9.95715  eV     1   --> A'             
     e(  8 -  8) =     13.27750  eV     1   --> A'             

 **************************************************************************

 **************************************************************************

                    xk=(   0.80000,   0.50000,   0.50000  )

     Band symmetry, C_s (m)     point group:

     e(  1 -  1) =     -3.60984  eV     1   --> A'             
     e(  2 -  2) =      0.05339  eV     1   --> A'             
     e(  3 -  3) =      3.40296  eV     1   --> A'             
     e(  4 -  4) =      4.97010  eV     1   --> A''            
     e(  5 -  5) =      8.70262  eV     1   --> A'             
     e(  6 -  6) =     10.16279  eV     1   --> A'             
     e(  7 -  7) =     10.36166  eV     1   --> A''            
     e(  8 -  8) =     13.83243  eV     1   --> A'             

 **************************************************************************

 **************************************************************************

                    xk=(   0.80000,   0.40000,   0.40000  )

     Band symmetry, C_s (m)     point group:

     e(  1 -  1) =     -3.00107  eV     1   --> A'             
     e(  2 -  2) =     -0.49549  eV     1   --> A'             
     e(  3 -  3) =      2.77038  eV     1   --> A'             
     e(  4 -  4) =      4.52880  eV     1   --> A''            
     e(  5 -  5) =      8.29009  eV     1   --> A'             
     e(  6 -  6) =     10.88370  eV     1   --> A'             
     e(  7 -  7) =     11.09330  eV     1   --> A''            
     e(  8 -  8) =     13.85399  eV     1   --> A'             

 **************************************************************************

 **************************************************************************

                    xk=(   0.80000,   0.30000,   0.30000  )

     Band symmetry, C_s (m)     point group:

     e(  1 -  1) =     -2.72802  eV     1   --> A'             
     e(  2 -  2) =     -0.51008  eV     1   --> A'             
     e(  3 -  3) =      2.40715  eV     1   --> A'             
     e(  4 -  4) =      4.11819  eV     1   --> A''            
     e(  5 -  5) =      7.82121  eV     1   --> A'             
     e(  6 -  6) =     11.48819  eV     1   --> A'             
     e(  7 -  7) =     12.04251  eV     1   --> A''            
     e(  8 -  8) =     12.08997  eV     1   --> A'             

 **************************************************************************

 **************************************************************************

                    xk=(   0.80000,   0.20000,   0.20000  )

     Band symmetry, C_s (m)     point group:

     e(  1 -  1) =     -2.81841  eV     1   --> A'             
     e(  2 -  2) =     -0.16630  eV     1   --> A'             
     e(  3 -  3) =      2.48935  eV     1   --> A'             
     e(  4 -  4) =      3.79496  eV     1   --> A''            
     e(  5 -  5) =      7.42690  eV     1   --> A'             
     e(  6 -  6) =      9.61726  eV     1   --> A'             
     e(  7 -  7) =     13.08659  eV     1   --> A'             
     e(  8 -  8) =     13.13136  eV     1   --> A''            

 **************************************************************************

 **************************************************************************

                    xk=(   0.80000,   0.10000,   0.10000  )

     Band symmetry, C_s (m)     point group:

     e(  1 -  1) =     -2.96854  eV     1   --> A'             
     e(  2 -  2) =      0.04950  eV     1   --> A'             
     e(  3 -  3) =      3.07151  eV     1   --> A'             
     e(  4 -  4) =      3.59114  eV     1   --> A''            
     e(  5 -  5) =      7.09177  eV     1   --> A'             
     e(  6 -  6) =      8.03681  eV     1   --> A'             
     e(  7 -  7) =     14.22115  eV     1   --> A'             
     e(  8 -  8) =     14.22880  eV     1   --> A''            

 **************************************************************************

 **************************************************************************

                    xk=(   0.80000,   0.00000,   0.00000  )

     point group C_4v (4mm) 
     there are  5 classes
     the character table:

       E     2C4   C2    2s_v  2s_d 
A_1    1.00  1.00  1.00  1.00  1.00
A_2    1.00  1.00  1.00 -1.00 -1.00
B_1    1.00 -1.00  1.00  1.00 -1.00
B_2    1.00 -1.00  1.00 -1.00  1.00
E      2.00  0.00 -2.00  0.00  0.00

     the symmetry operations in each class and the name of the first element:

     E        1
                                                                 
     2C4      3    4
                                                                 
     C2       2
                                                                 
     2s_v     5    6
                                                                 
     2s_d     7    8
                                                                 

     Band symmetry, C_4v (4mm)  point group:

     e(  1 -  1) =     -3.02882  eV     1   --> A_1  G_1 D_1   
     e(  2 -  2) =      0.09537  eV     1   --> B_2  G_4 D_2'  
     e(  3 -  4) =      3.52181  eV     2   --> E    G_5 D_5   
     e(  5 -  5) =      6.76596  eV     1   --> A_1  G_1 D_1   
     e(  6 -  6) =      7.49772  eV     1   --> B_2  G_4 D_2'  
     e(  7 -  8) =     14.83760  eV     2   --> E    G_5 D_5   

 **************************************************************************

     BANDS        :      0.22s CPU      0.25s WALL


   This run was terminated on:  17:39:55  23Feb2023            

=------------------------------------------------------------------------------=
   JOB DONE.
=------------------------------------------------------------------------------=
