
     Program BANDS v.6.7MaX starts on 22Mar2023 at 16: 0:17 

     This program is part of the open-source Quantum ESPRESSO suite
     for quantum simulation of materials; please cite
         "P. Giannozzi et al., J. Phys.:Condens. Matter 21 395502 (2009);
         "P. Giannozzi et al., J. Phys.:Condens. Matter 29 465901 (2017);
          URL http://www.quantum-espresso.org", 
     in publications or presentations arising from this work. More details at
     http://www.quantum-espresso.org/quote

     Parallel version (MPI), running on     1 processors

     MPI processes distributed on     1 nodes

     Reading xml data from directory:

     tmp/silicon.save/

     IMPORTANT: XC functional enforced from input :
     Exchange-correlation= PZ
                           (   1   1   0   0   0   0   0)
     Any further DFT definition will be discarded
     Please, verify this is what you really want


     G-vector sticks info
     --------------------
     sticks:   dense  smooth     PW     G-vecs:    dense   smooth      PW
     Sum         313     313     97                 3719     3719     645

     Reading collected, re-writing distributed wavefunctions
     high-symmetry point:  0.0000 0.0000 0.0000   x coordinate   0.0000
     high-symmetry point:  0.0000 0.0000 1.0000   x coordinate   1.0000

     Plottable bands (eV) written to file si_bands.dat.gnu
     Bands written to file si_bands.dat

 **************************************************************************

                    xk=(   0.00000,   0.00000,   0.00000  )

     point group O_h (m-3m) 
     there are 10 classes
     the character table:

       E     8C3   3C2   6C4   6C2'  i     8S6   3s_h  6S4   6s_d 
A_1g   1.00  1.00  1.00  1.00  1.00  1.00  1.00  1.00  1.00  1.00
A_2g   1.00  1.00  1.00 -1.00 -1.00  1.00  1.00  1.00 -1.00 -1.00
E_g    2.00 -1.00  2.00  0.00  0.00  2.00 -1.00  2.00  0.00  0.00
T_1g   3.00  0.00 -1.00  1.00 -1.00  3.00  0.00 -1.00  1.00 -1.00
T_2g   3.00  0.00 -1.00 -1.00  1.00  3.00  0.00 -1.00 -1.00  1.00
A_1u   1.00  1.00  1.00  1.00  1.00 -1.00 -1.00 -1.00 -1.00 -1.00
A_2u   1.00  1.00  1.00 -1.00 -1.00 -1.00 -1.00 -1.00  1.00  1.00
E_u    2.00 -1.00  2.00  0.00  0.00 -2.00  1.00 -2.00  0.00  0.00
T_1u   3.00  0.00 -1.00  1.00 -1.00 -3.00  0.00  1.00 -1.00  1.00
T_2u   3.00  0.00 -1.00 -1.00  1.00 -3.00  0.00  1.00  1.00 -1.00

     the symmetry operations in each class and the name of the first element:

     E        1
                                                                 
     8C3     17   19   20   18   24   21   22   23
                                                                 
     3C2      2    4    3
                                                                 
     6C4      7    8   15   16   12   11
                                                                 
     6C2'     5    6   14   13   10    9
                                                                 
     i       25
                                                                 
     8S6     41   43   44   42   48   45   46   47
                                                                 
     3s_h    26   28   27
                                                                 
     6S4     31   32   39   40   36   35
                                                                 
     6s_d    29   30   38   37   34   33
                                                                 

     Band symmetry, O_h (m-3m)  point group:

     e(  1 -  1) =     -6.18151  eV     1   --> A_1g G_1   G_1+
     e(  2 -  4) =      4.97845  eV     3   --> T_2g G_25' G_5+
     e(  5 -  5) =      6.90634  eV     1   --> A_2u G_2'  G_2-
     e(  6 -  8) =      7.40352  eV     3   --> T_1u G_15  G_4-

 **************************************************************************

 **************************************************************************

                    xk=(   0.00000,   0.00000,   0.02000  )

     point group C_4v (4mm) 
     there are  5 classes
     the character table:

       E     2C4   C2    2s_v  2s_d 
A_1    1.00  1.00  1.00  1.00  1.00
A_2    1.00  1.00  1.00 -1.00 -1.00
B_1    1.00 -1.00  1.00  1.00 -1.00
B_2    1.00 -1.00  1.00 -1.00  1.00
E      2.00  0.00 -2.00  0.00  0.00

     the symmetry operations in each class and the name of the first element:

     E        1
                                                                 
     2C4      3    4
                                                                 
     C2       2
                                                                 
     2s_v     5    6
                                                                 
     2s_d     7    8
                                                                 

     Band symmetry, C_4v (4mm)  point group:

     e(  1 -  1) =     -6.17993  eV     1   --> A_1  G_1 D_1   
     e(  2 -  2) =      4.96165  eV     1   --> B_2  G_4 D_2'  
     e(  3 -  4) =      4.97170  eV     2   --> E    G_5 D_5   
     e(  5 -  5) =      6.92284  eV     1   --> B_2  G_4 D_2'  
     e(  6 -  6) =      7.39935  eV     1   --> A_1  G_1 D_1   
     e(  7 -  8) =      7.41219  eV     2   --> E    G_5 D_5   

 **************************************************************************

 **************************************************************************

                    xk=(   0.00000,   0.00000,   0.04000  )

     Band symmetry, C_4v (4mm)  point group:

     e(  1 -  1) =     -6.17519  eV     1   --> A_1  G_1 D_1   
     e(  2 -  2) =      4.91294  eV     1   --> B_2  G_4 D_2'  
     e(  3 -  4) =      4.95176  eV     2   --> E    G_5 D_5   
     e(  5 -  5) =      6.97060  eV     1   --> B_2  G_4 D_2'  
     e(  6 -  6) =      7.38694  eV     1   --> A_1  G_1 D_1   
     e(  7 -  8) =      7.43790  eV     2   --> E    G_5 D_5   

 **************************************************************************

 **************************************************************************

                    xk=(   0.00000,   0.00000,   0.06000  )

     Band symmetry, C_4v (4mm)  point group:

     e(  1 -  1) =     -6.16730  eV     1   --> A_1  G_1 D_1   
     e(  2 -  2) =      4.83660  eV     1   --> B_2  G_4 D_2'  
     e(  3 -  4) =      4.91947  eV     2   --> E    G_5 D_5   
     e(  5 -  5) =      7.04522  eV     1   --> B_2  G_4 D_2'  
     e(  6 -  6) =      7.36654  eV     1   --> A_1  G_1 D_1   
     e(  7 -  8) =      7.47980  eV     2   --> E    G_5 D_5   

 **************************************************************************

 **************************************************************************

                    xk=(   0.00000,   0.00000,   0.08000  )

     Band symmetry, C_4v (4mm)  point group:

     e(  1 -  1) =     -6.15671  eV     1   --> A_1  G_1 D_1   
     e(  2 -  2) =      4.73733  eV     1   --> B_2  G_4 D_2'  
     e(  3 -  4) =      4.87584  eV     2   --> E    G_5 D_5   
     e(  5 -  5) =      7.14104  eV     1   --> B_2  G_4 D_2'  
     e(  6 -  6) =      7.33793  eV     1   --> A_1  G_1 D_1   
     e(  7 -  8) =      7.53626  eV     2   --> E    G_5 D_5   

 **************************************************************************

 **************************************************************************

                    xk=(   0.00000,   0.00000,   0.10000  )

     Band symmetry, C_4v (4mm)  point group:

     e(  1 -  1) =     -6.14252  eV     1   --> A_1  G_1 D_1   
     e(  2 -  2) =      4.62151  eV     1   --> B_2  G_4 D_2'  
     e(  3 -  4) =      4.82282  eV     2   --> E    G_5 D_5   
     e(  5 -  5) =      7.25269  eV     1   --> B_2  G_4 D_2'  
     e(  6 -  6) =      7.30287  eV     1   --> A_1  G_1 D_1   
     e(  7 -  8) =      7.60654  eV     2   --> E    G_5 D_5   

 **************************************************************************

 **************************************************************************

                    xk=(   0.00000,   0.00000,   0.12000  )

     Band symmetry, C_4v (4mm)  point group:

     e(  1 -  1) =     -6.12579  eV     1   --> A_1  G_1 D_1   
     e(  2 -  2) =      4.49077  eV     1   --> B_2  G_4 D_2'  
     e(  3 -  4) =      4.76074  eV     2   --> E    G_5 D_5   
     e(  5 -  5) =      7.25983  eV     1   --> A_1  G_1 D_1   
     e(  6 -  6) =      7.37532  eV     1   --> B_2  G_4 D_2'  
     e(  7 -  8) =      7.68586  eV     2   --> E    G_5 D_5   

 **************************************************************************

 **************************************************************************

                    xk=(   0.00000,   0.00000,   0.14000  )

     Band symmetry, C_4v (4mm)  point group:

     e(  1 -  1) =     -6.10532  eV     1   --> A_1  G_1 D_1   
     e(  2 -  2) =      4.35240  eV     1   --> B_2  G_4 D_2'  
     e(  3 -  4) =      4.69314  eV     2   --> E    G_5 D_5   
     e(  5 -  5) =      7.21262  eV     1   --> A_1  G_1 D_1   
     e(  6 -  6) =      7.50500  eV     1   --> B_2  G_4 D_2'  
     e(  7 -  8) =      7.77820  eV     2   --> E    G_5 D_5   

 **************************************************************************

 **************************************************************************

                    xk=(   0.00000,   0.00000,   0.16000  )

     Band symmetry, C_4v (4mm)  point group:

     e(  1 -  1) =     -6.08171  eV     1   --> A_1  G_1 D_1   
     e(  2 -  2) =      4.20689  eV     1   --> B_2  G_4 D_2'  
     e(  3 -  4) =      4.62031  eV     2   --> E    G_5 D_5   
     e(  5 -  5) =      7.16043  eV     1   --> A_1  G_1 D_1   
     e(  6 -  6) =      7.63836  eV     1   --> B_2  G_4 D_2'  
     e(  7 -  8) =      7.87955  eV     2   --> E    G_5 D_5   

 **************************************************************************

 **************************************************************************

                    xk=(   0.00000,   0.00000,   0.18000  )

     Band symmetry, C_4v (4mm)  point group:

     e(  1 -  1) =     -6.05460  eV     1   --> A_1  G_1 D_1   
     e(  2 -  2) =      4.05454  eV     1   --> B_2  G_4 D_2'  
     e(  3 -  4) =      4.54434  eV     2   --> E    G_5 D_5   
     e(  5 -  5) =      7.10328  eV     1   --> A_1  G_1 D_1   
     e(  6 -  6) =      7.77249  eV     1   --> B_2  G_4 D_2'  
     e(  7 -  8) =      7.98632  eV     2   --> E    G_5 D_5   

 **************************************************************************

 **************************************************************************

                    xk=(   0.00000,   0.00000,   0.20000  )

     Band symmetry, C_4v (4mm)  point group:

     e(  1 -  1) =     -6.02477  eV     1   --> A_1  G_1 D_1   
     e(  2 -  2) =      3.89965  eV     1   --> B_2  G_4 D_2'  
     e(  3 -  4) =      4.46444  eV     2   --> E    G_5 D_5   
     e(  5 -  5) =      7.04327  eV     1   --> A_1  G_1 D_1   
     e(  6 -  6) =      7.90440  eV     1   --> B_2  G_4 D_2'  
     e(  7 -  8) =      8.10214  eV     2   --> E    G_5 D_5   

 **************************************************************************

 **************************************************************************

                    xk=(   0.00000,   0.00000,   0.22000  )

     Band symmetry, C_4v (4mm)  point group:

     e(  1 -  1) =     -5.99182  eV     1   --> A_1  G_1 D_1   
     e(  2 -  2) =      3.74174  eV     1   --> B_2  G_4 D_2'  
     e(  3 -  4) =      4.38242  eV     2   --> E    G_5 D_5   
     e(  5 -  5) =      6.98041  eV     1   --> A_1  G_1 D_1   
     e(  6 -  6) =      8.03123  eV     1   --> B_2  G_4 D_2'  
     e(  7 -  8) =      8.22380  eV     2   --> E    G_5 D_5   

 **************************************************************************

 **************************************************************************

                    xk=(   0.00000,   0.00000,   0.24000  )

     Band symmetry, C_4v (4mm)  point group:

     e(  1 -  1) =     -5.95575  eV     1   --> A_1  G_1 D_1   
     e(  2 -  2) =      3.58155  eV     1   --> B_2  G_4 D_2'  
     e(  3 -  4) =      4.29899  eV     2   --> E    G_5 D_5   
     e(  5 -  5) =      6.91534  eV     1   --> A_1  G_1 D_1   
     e(  6 -  6) =      8.14978  eV     1   --> B_2  G_4 D_2'  
     e(  7 -  8) =      8.35055  eV     2   --> E    G_5 D_5   

 **************************************************************************

 **************************************************************************

                    xk=(   0.00000,   0.00000,   0.26000  )

     Band symmetry, C_4v (4mm)  point group:

     e(  1 -  1) =     -5.91546  eV     1   --> A_1  G_1 D_1   
     e(  2 -  2) =      3.41988  eV     1   --> B_2  G_4 D_2'  
     e(  3 -  4) =      4.21626  eV     2   --> E    G_5 D_5   
     e(  5 -  5) =      6.84871  eV     1   --> A_1  G_1 D_1   
     e(  6 -  6) =      8.25659  eV     1   --> B_2  G_4 D_2'  
     e(  7 -  8) =      8.48176  eV     2   --> E    G_5 D_5   

 **************************************************************************

 **************************************************************************

                    xk=(   0.00000,   0.00000,   0.28000  )

     Band symmetry, C_4v (4mm)  point group:

     e(  1 -  1) =     -5.87321  eV     1   --> A_1  G_1 D_1   
     e(  2 -  2) =      3.25665  eV     1   --> B_2  G_4 D_2'  
     e(  3 -  4) =      4.13176  eV     2   --> E    G_5 D_5   
     e(  5 -  5) =      6.78094  eV     1   --> A_1  G_1 D_1   
     e(  6 -  6) =      8.34743  eV     1   --> B_2  G_4 D_2'  
     e(  7 -  8) =      8.61686  eV     2   --> E    G_5 D_5   

 **************************************************************************

 **************************************************************************

                    xk=(   0.00000,   0.00000,   0.30000  )

     Band symmetry, C_4v (4mm)  point group:

     e(  1 -  1) =     -5.82787  eV     1   --> A_1  G_1 D_1   
     e(  2 -  2) =      3.09245  eV     1   --> B_2  G_4 D_2'  
     e(  3 -  4) =      4.04745  eV     2   --> E    G_5 D_5   
     e(  5 -  5) =      6.71258  eV     1   --> A_1  G_1 D_1   
     e(  6 -  6) =      8.41834  eV     1   --> B_2  G_4 D_2'  
     e(  7 -  8) =      8.75539  eV     2   --> E    G_5 D_5   

 **************************************************************************

 **************************************************************************

                    xk=(   0.00000,   0.00000,   0.32000  )

     Band symmetry, C_4v (4mm)  point group:

     e(  1 -  1) =     -5.77946  eV     1   --> A_1  G_1 D_1   
     e(  2 -  2) =      2.92753  eV     1   --> B_2  G_4 D_2'  
     e(  3 -  4) =      3.96367  eV     2   --> E    G_5 D_5   
     e(  5 -  5) =      6.64409  eV     1   --> A_1  G_1 D_1   
     e(  6 -  6) =      8.46556  eV     1   --> B_2  G_4 D_2'  
     e(  7 -  8) =      8.89698  eV     2   --> E    G_5 D_5   

 **************************************************************************

 **************************************************************************

                    xk=(   0.00000,   0.00000,   0.34000  )

     Band symmetry, C_4v (4mm)  point group:

     e(  1 -  1) =     -5.72799  eV     1   --> A_1  G_1 D_1   
     e(  2 -  2) =      2.76210  eV     1   --> B_2  G_4 D_2'  
     e(  3 -  4) =      3.88074  eV     2   --> E    G_5 D_5   
     e(  5 -  5) =      6.57586  eV     1   --> A_1  G_1 D_1   
     e(  6 -  6) =      8.48641  eV     1   --> B_2  G_4 D_2'  
     e(  7 -  8) =      9.04127  eV     2   --> E    G_5 D_5   

 **************************************************************************

 **************************************************************************

                    xk=(   0.00000,   0.00000,   0.36000  )

     Band symmetry, C_4v (4mm)  point group:

     e(  1 -  1) =     -5.67348  eV     1   --> A_1  G_1 D_1   
     e(  2 -  2) =      2.59631  eV     1   --> B_2  G_4 D_2'  
     e(  3 -  4) =      3.79892  eV     2   --> E    G_5 D_5   
     e(  5 -  5) =      6.50826  eV     1   --> A_1  G_1 D_1   
     e(  6 -  6) =      8.48004  eV     1   --> B_2  G_4 D_2'  
     e(  7 -  8) =      9.18799  eV     2   --> E    G_5 D_5   

 **************************************************************************

 **************************************************************************

                    xk=(   0.00000,   0.00000,   0.38000  )

     Band symmetry, C_4v (4mm)  point group:

     e(  1 -  1) =     -5.61592  eV     1   --> A_1  G_1 D_1   
     e(  2 -  2) =      2.43030  eV     1   --> B_2  G_4 D_2'  
     e(  3 -  4) =      3.71844  eV     2   --> E    G_5 D_5   
     e(  5 -  5) =      6.44161  eV     1   --> A_1  G_1 D_1   
     e(  6 -  6) =      8.44763  eV     1   --> B_2  G_4 D_2'  
     e(  7 -  8) =      9.33689  eV     2   --> E    G_5 D_5   

 **************************************************************************

 **************************************************************************

                    xk=(   0.00000,   0.00000,   0.40000  )

     Band symmetry, C_4v (4mm)  point group:

     e(  1 -  1) =     -5.55542  eV     1   --> A_1  G_1 D_1   
     e(  2 -  2) =      2.26417  eV     1   --> B_2  G_4 D_2'  
     e(  3 -  4) =      3.63948  eV     2   --> E    G_5 D_5   
     e(  5 -  5) =      6.37558  eV     1   --> A_1  G_1 D_1   
     e(  6 -  6) =      8.39212  eV     1   --> B_2  G_4 D_2'  
     e(  7 -  8) =      9.48775  eV     2   --> E    G_5 D_5   

 **************************************************************************

 **************************************************************************

                    xk=(   0.00000,   0.00000,   0.42000  )

     Band symmetry, C_4v (4mm)  point group:

     e(  1 -  1) =     -5.49184  eV     1   --> A_1  G_1 D_1   
     e(  2 -  2) =      2.09802  eV     1   --> B_2  G_4 D_2'  
     e(  3 -  4) =      3.56222  eV     2   --> E    G_5 D_5   
     e(  5 -  5) =      6.31166  eV     1   --> A_1  G_1 D_1   
     e(  6 -  6) =      8.31743  eV     1   --> B_2  G_4 D_2'  
     e(  7 -  8) =      9.64039  eV     2   --> E    G_5 D_5   

 **************************************************************************

 **************************************************************************

                    xk=(   0.00000,   0.00000,   0.44000  )

     Band symmetry, C_4v (4mm)  point group:

     e(  1 -  1) =     -5.42528  eV     1   --> A_1  G_1 D_1   
     e(  2 -  2) =      1.93193  eV     1   --> B_2  G_4 D_2'  
     e(  3 -  4) =      3.48680  eV     2   --> E    G_5 D_5   
     e(  5 -  5) =      6.24948  eV     1   --> A_1  G_1 D_1   
     e(  6 -  6) =      8.22768  eV     1   --> B_2  G_4 D_2'  
     e(  7 -  8) =      9.79464  eV     2   --> E    G_5 D_5   

 **************************************************************************

 **************************************************************************

                    xk=(   0.00000,   0.00000,   0.46000  )

     Band symmetry, C_4v (4mm)  point group:

     e(  1 -  1) =     -5.35459  eV     1   --> A_1  G_1 D_1   
     e(  2 -  2) =      1.76673  eV     1   --> B_2  G_4 D_2'  
     e(  3 -  4) =      3.41409  eV     2   --> E    G_5 D_5   
     e(  5 -  5) =      6.18932  eV     1   --> A_1  G_1 D_1   
     e(  6 -  6) =      8.12697  eV     1   --> B_2  G_4 D_2'  
     e(  7 -  8) =      9.95036  eV     2   --> E    G_5 D_5   

 **************************************************************************

 **************************************************************************

                    xk=(   0.00000,   0.00000,   0.48000  )

     Band symmetry, C_4v (4mm)  point group:

     e(  1 -  1) =     -5.28211  eV     1   --> A_1  G_1 D_1   
     e(  2 -  2) =      1.60091  eV     1   --> B_2  G_4 D_2'  
     e(  3 -  4) =      3.34269  eV     2   --> E    G_5 D_5   
     e(  5 -  5) =      6.13125  eV     1   --> A_1  G_1 D_1   
     e(  6 -  6) =      8.01806  eV     1   --> B_2  G_4 D_2'  
     e(  7 -  8) =     10.10741  eV     2   --> E    G_5 D_5   

 **************************************************************************

 **************************************************************************

                    xk=(   0.00000,   0.00000,   0.50000  )

     Band symmetry, C_4v (4mm)  point group:

     e(  1 -  1) =     -5.20634  eV     1   --> A_1  G_1 D_1   
     e(  2 -  2) =      1.43540  eV     1   --> B_2  G_4 D_2'  
     e(  3 -  4) =      3.27371  eV     2   --> E    G_5 D_5   
     e(  5 -  5) =      6.07551  eV     1   --> A_1  G_1 D_1   
     e(  6 -  6) =      7.90822  eV     1   --> B_2  G_4 D_2'  
     e(  7 -  8) =     10.26645  eV     2   --> E    G_5 D_5   

 **************************************************************************

 **************************************************************************

                    xk=(   0.00000,   0.00000,   0.52000  )

     Band symmetry, C_4v (4mm)  point group:

     e(  1 -  1) =     -5.12804  eV     1   --> A_1  G_1 D_1   
     e(  2 -  2) =      1.27013  eV     1   --> B_2  G_4 D_2'  
     e(  3 -  4) =      3.20671  eV     2   --> E    G_5 D_5   
     e(  5 -  5) =      6.02225  eV     1   --> A_1  G_1 D_1   
     e(  6 -  6) =      7.79054  eV     1   --> B_2  G_4 D_2'  
     e(  7 -  8) =     10.42587  eV     2   --> E    G_5 D_5   

 **************************************************************************

 **************************************************************************

                    xk=(   0.00000,   0.00000,   0.54000  )

     Band symmetry, C_4v (4mm)  point group:

     e(  1 -  1) =     -5.04686  eV     1   --> A_1  G_1 D_1   
     e(  2 -  2) =      1.10522  eV     1   --> B_2  G_4 D_2'  
     e(  3 -  4) =      3.14205  eV     2   --> E    G_5 D_5   
     e(  5 -  5) =      5.97162  eV     1   --> A_1  G_1 D_1   
     e(  6 -  6) =      7.67127  eV     1   --> B_2  G_4 D_2'  
     e(  7 -  8) =     10.58632  eV     2   --> E    G_5 D_5   

 **************************************************************************

 **************************************************************************

                    xk=(   0.00000,   0.00000,   0.56000  )

     Band symmetry, C_4v (4mm)  point group:

     e(  1 -  1) =     -4.96281  eV     1   --> A_1  G_1 D_1   
     e(  2 -  2) =      0.94072  eV     1   --> B_2  G_4 D_2'  
     e(  3 -  4) =      3.07977  eV     2   --> E    G_5 D_5   
     e(  5 -  5) =      5.92375  eV     1   --> A_1  G_1 D_1   
     e(  6 -  6) =      7.55173  eV     1   --> B_2  G_4 D_2'  
     e(  7 -  8) =     10.74773  eV     2   --> E    G_5 D_5   

 **************************************************************************

 **************************************************************************

                    xk=(   0.00000,   0.00000,   0.58000  )

     Band symmetry, C_4v (4mm)  point group:

     e(  1 -  1) =     -4.87592  eV     1   --> A_1  G_1 D_1   
     e(  2 -  2) =      0.77669  eV     1   --> B_2  G_4 D_2'  
     e(  3 -  4) =      3.01995  eV     2   --> E    G_5 D_5   
     e(  5 -  5) =      5.87877  eV     1   --> A_1  G_1 D_1   
     e(  6 -  6) =      7.43294  eV     1   --> B_2  G_4 D_2'  
     e(  7 -  8) =     10.90999  eV     2   --> E    G_5 D_5   

 **************************************************************************

 **************************************************************************

                    xk=(   0.00000,   0.00000,   0.60000  )

     Band symmetry, C_4v (4mm)  point group:

     e(  1 -  1) =     -4.78622  eV     1   --> A_1  G_1 D_1   
     e(  2 -  2) =      0.61317  eV     1   --> B_2  G_4 D_2'  
     e(  3 -  4) =      2.96265  eV     2   --> E    G_5 D_5   
     e(  5 -  5) =      5.83678  eV     1   --> A_1  G_1 D_1   
     e(  6 -  6) =      7.31569  eV     1   --> B_2  G_4 D_2'  
     e(  7 -  8) =     11.07305  eV     2   --> E    G_5 D_5   

 **************************************************************************

 **************************************************************************

                    xk=(   0.00000,   0.00000,   0.62000  )

     Band symmetry, C_4v (4mm)  point group:

     e(  1 -  1) =     -4.69374  eV     1   --> A_1  G_1 D_1   
     e(  2 -  2) =      0.45023  eV     1   --> B_2  G_4 D_2'  
     e(  3 -  4) =      2.90789  eV     2   --> E    G_5 D_5   
     e(  5 -  5) =      5.79789  eV     1   --> A_1  G_1 D_1   
     e(  6 -  6) =      7.20061  eV     1   --> B_2  G_4 D_2'  
     e(  7 -  8) =     11.23681  eV     2   --> E    G_5 D_5   

 **************************************************************************

 **************************************************************************

                    xk=(   0.00000,   0.00000,   0.64000  )

     Band symmetry, C_4v (4mm)  point group:

     e(  1 -  1) =     -4.59850  eV     1   --> A_1  G_1 D_1   
     e(  2 -  2) =      0.28791  eV     1   --> B_2  G_4 D_2'  
     e(  3 -  4) =      2.85574  eV     2   --> E    G_5 D_5   
     e(  5 -  5) =      5.76220  eV     1   --> A_1  G_1 D_1   
     e(  6 -  6) =      7.08822  eV     1   --> B_2  G_4 D_2'  
     e(  7 -  8) =     11.40120  eV     2   --> E    G_5 D_5   

 **************************************************************************

 **************************************************************************

                    xk=(   0.00000,   0.00000,   0.66000  )

     Band symmetry, C_4v (4mm)  point group:

     e(  1 -  1) =     -4.49981  eV     1   --> A_1  G_1 D_1   
     e(  2 -  2) =      0.12555  eV     1   --> B_2  G_4 D_2'  
     e(  3 -  4) =      2.80663  eV     2   --> E    G_5 D_5   
     e(  5 -  5) =      5.72988  eV     1   --> A_1  G_1 D_1   
     e(  6 -  6) =      6.97877  eV     1   --> B_2  G_4 D_2'  
     e(  7 -  8) =     11.56725  eV     2   --> E    G_5 D_5   

 **************************************************************************

 **************************************************************************

                    xk=(   0.00000,   0.00000,   0.68000  )

     Band symmetry, C_4v (4mm)  point group:

     e(  1 -  1) =     -4.39929  eV     1   --> A_1  G_1 D_1   
     e(  2 -  2) =     -0.03590  eV     1   --> B_2  G_4 D_2'  
     e(  3 -  4) =      2.75968  eV     2   --> E    G_5 D_5   
     e(  5 -  5) =      5.69975  eV     1   --> A_1  G_1 D_1   
     e(  6 -  6) =      6.87231  eV     1   --> B_2  G_4 D_2'  
     e(  7 -  8) =     11.73064  eV     2   --> E    G_5 D_5   

 **************************************************************************

 **************************************************************************

                    xk=(   0.00000,   0.00000,   0.70000  )

     Band symmetry, C_4v (4mm)  point group:

     e(  1 -  1) =     -4.29600  eV     1   --> A_1  G_1 D_1   
     e(  2 -  2) =     -0.19599  eV     1   --> B_2  G_4 D_2'  
     e(  3 -  4) =      2.71568  eV     2   --> E    G_5 D_5   
     e(  5 -  5) =      5.67413  eV     1   --> A_1  G_1 D_1   
     e(  6 -  6) =      6.77027  eV     1   --> B_2  G_4 D_2'  
     e(  7 -  8) =     11.89736  eV     2   --> E    G_5 D_5   

 **************************************************************************

 **************************************************************************

                    xk=(   0.00000,   0.00000,   0.72000  )

     Band symmetry, C_4v (4mm)  point group:

     e(  1 -  1) =     -4.19009  eV     1   --> A_1  G_1 D_1   
     e(  2 -  2) =     -0.35523  eV     1   --> B_2  G_4 D_2'  
     e(  3 -  4) =      2.67424  eV     2   --> E    G_5 D_5   
     e(  5 -  5) =      5.65204  eV     1   --> A_1  G_1 D_1   
     e(  6 -  6) =      6.67182  eV     1   --> B_2  G_4 D_2'  
     e(  7 -  8) =     12.06317  eV     2   --> E    G_5 D_5   

 **************************************************************************

 **************************************************************************

                    xk=(   0.00000,   0.00000,   0.74000  )

     Band symmetry, C_4v (4mm)  point group:

     e(  1 -  1) =     -4.08158  eV     1   --> A_1  G_1 D_1   
     e(  2 -  2) =     -0.51353  eV     1   --> B_2  G_4 D_2'  
     e(  3 -  4) =      2.63557  eV     2   --> E    G_5 D_5   
     e(  5 -  5) =      5.63354  eV     1   --> A_1  G_1 D_1   
     e(  6 -  6) =      6.57738  eV     1   --> B_2  G_4 D_2'  
     e(  7 -  8) =     12.22895  eV     2   --> E    G_5 D_5   

 **************************************************************************

 **************************************************************************

                    xk=(   0.00000,   0.00000,   0.76000  )

     Band symmetry, C_4v (4mm)  point group:

     e(  1 -  1) =     -3.97053  eV     1   --> A_1  G_1 D_1   
     e(  2 -  2) =     -0.67082  eV     1   --> B_2  G_4 D_2'  
     e(  3 -  4) =      2.59968  eV     2   --> E    G_5 D_5   
     e(  5 -  5) =      5.61871  eV     1   --> A_1  G_1 D_1   
     e(  6 -  6) =      6.48709  eV     1   --> B_2  G_4 D_2'  
     e(  7 -  8) =     12.39447  eV     2   --> E    G_5 D_5   

 **************************************************************************

 **************************************************************************

                    xk=(   0.00000,   0.00000,   0.78000  )

     Band symmetry, C_4v (4mm)  point group:

     e(  1 -  1) =     -3.85698  eV     1   --> A_1  G_1 D_1   
     e(  2 -  2) =     -0.82704  eV     1   --> B_2  G_4 D_2'  
     e(  3 -  4) =      2.56659  eV     2   --> E    G_5 D_5   
     e(  5 -  5) =      5.60760  eV     1   --> A_1  G_1 D_1   
     e(  6 -  6) =      6.40104  eV     1   --> B_2  G_4 D_2'  
     e(  7 -  8) =     12.55941  eV     2   --> E    G_5 D_5   

 **************************************************************************

 **************************************************************************

                    xk=(   0.00000,   0.00000,   0.80000  )

     Band symmetry, C_4v (4mm)  point group:

     e(  1 -  1) =     -3.74095  eV     1   --> A_1  G_1 D_1   
     e(  2 -  2) =     -0.98211  eV     1   --> B_2  G_4 D_2'  
     e(  3 -  4) =      2.53633  eV     2   --> E    G_5 D_5   
     e(  5 -  5) =      5.60028  eV     1   --> A_1  G_1 D_1   
     e(  6 -  6) =      6.31930  eV     1   --> B_2  G_4 D_2'  
     e(  7 -  8) =     12.72334  eV     2   --> E    G_5 D_5   

 **************************************************************************

 **************************************************************************

                    xk=(   0.00000,   0.00000,   0.82000  )

     Band symmetry, C_4v (4mm)  point group:

     e(  1 -  1) =     -3.62250  eV     1   --> A_1  G_1 D_1   
     e(  2 -  2) =     -1.13597  eV     1   --> B_2  G_4 D_2'  
     e(  3 -  4) =      2.50890  eV     2   --> E    G_5 D_5   
     e(  5 -  5) =      5.59681  eV     1   --> A_1  G_1 D_1   
     e(  6 -  6) =      6.24192  eV     1   --> B_2  G_4 D_2'  
     e(  7 -  8) =     12.88567  eV     2   --> E    G_5 D_5   

 **************************************************************************

 **************************************************************************

                    xk=(   0.00000,   0.00000,   0.84000  )

     Band symmetry, C_4v (4mm)  point group:

     e(  1 -  1) =     -3.50168  eV     1   --> A_1  G_1 D_1   
     e(  2 -  2) =     -1.28854  eV     1   --> B_2  G_4 D_2'  
     e(  3 -  4) =      2.48433  eV     2   --> E    G_5 D_5   
     e(  5 -  5) =      5.59725  eV     1   --> A_1  G_1 D_1   
     e(  6 -  6) =      6.16895  eV     1   --> B_2  G_4 D_2'  
     e(  7 -  8) =     13.04560  eV     2   --> E    G_5 D_5   

 **************************************************************************

 **************************************************************************

                    xk=(   0.00000,   0.00000,   0.86000  )

     Band symmetry, C_4v (4mm)  point group:

     e(  1 -  1) =     -3.37853  eV     1   --> A_1  G_1 D_1   
     e(  2 -  2) =     -1.43977  eV     1   --> B_2  G_4 D_2'  
     e(  3 -  4) =      2.46262  eV     2   --> E    G_5 D_5   
     e(  5 -  5) =      5.60164  eV     1   --> A_1  G_1 D_1   
     e(  6 -  6) =      6.10040  eV     1   --> B_2  G_4 D_2'  
     e(  7 -  8) =     13.20198  eV     2   --> E    G_5 D_5   

 **************************************************************************

 **************************************************************************

                    xk=(   0.00000,   0.00000,   0.88000  )

     Band symmetry, C_4v (4mm)  point group:

     e(  1 -  1) =     -3.25309  eV     1   --> A_1  G_1 D_1   
     e(  2 -  2) =     -1.58957  eV     1   --> B_2  G_4 D_2'  
     e(  3 -  4) =      2.44378  eV     2   --> E    G_5 D_5   
     e(  5 -  5) =      5.61005  eV     1   --> A_1  G_1 D_1   
     e(  6 -  6) =      6.03629  eV     1   --> B_2  G_4 D_2'  
     e(  7 -  8) =     13.35315  eV     2   --> E    G_5 D_5   

 **************************************************************************

 **************************************************************************

                    xk=(   0.00000,   0.00000,   0.90000  )

     Band symmetry, C_4v (4mm)  point group:

     e(  1 -  1) =     -3.12543  eV     1   --> A_1  G_1 D_1   
     e(  2 -  2) =     -1.73788  eV     1   --> B_2  G_4 D_2'  
     e(  3 -  4) =      2.42783  eV     2   --> E    G_5 D_5   
     e(  5 -  5) =      5.62252  eV     1   --> A_1  G_1 D_1   
     e(  6 -  6) =      5.97662  eV     1   --> B_2  G_4 D_2'  
     e(  7 -  8) =     13.49667  eV     2   --> E    G_5 D_5   

 **************************************************************************

 **************************************************************************

                    xk=(   0.00000,   0.00000,   0.92000  )

     Band symmetry, C_4v (4mm)  point group:

     e(  1 -  1) =     -2.99564  eV     1   --> A_1  G_1 D_1   
     e(  2 -  2) =     -1.88551  eV     1   --> B_2  G_4 D_2'  
     e(  3 -  4) =      2.41453  eV     2   --> E    G_5 D_5   
     e(  5 -  5) =      5.63873  eV     1   --> A_1  G_1 D_1   
     e(  6 -  6) =      5.92136  eV     1   --> B_2  G_4 D_2'  
     e(  7 -  8) =     13.62655  eV     2   --> E    G_5 D_5   

 **************************************************************************

 **************************************************************************

                    xk=(   0.00000,   0.00000,   0.94000  )

     Band symmetry, C_4v (4mm)  point group:

     e(  1 -  1) =     -2.86371  eV     1   --> A_1  G_1 D_1   
     e(  2 -  2) =     -2.03065  eV     1   --> B_2  G_4 D_2'  
     e(  3 -  4) =      2.40435  eV     2   --> E    G_5 D_5   
     e(  5 -  5) =      5.65708  eV     1   --> A_1  G_1 D_1   
     e(  6 -  6) =      5.87052  eV     1   --> B_2  G_4 D_2'  
     e(  7 -  8) =     13.74273  eV     2   --> E    G_5 D_5   

 **************************************************************************

 **************************************************************************

                    xk=(   0.00000,   0.00000,   0.96000  )

     Band symmetry, C_4v (4mm)  point group:

     e(  1 -  1) =     -2.72969  eV     1   --> A_1  G_1 D_1   
     e(  2 -  2) =     -2.17411  eV     1   --> B_2  G_4 D_2'  
     e(  3 -  4) =      2.39708  eV     2   --> E    G_5 D_5   
     e(  5 -  5) =      5.68193  eV     1   --> A_1  G_1 D_1   
     e(  6 -  6) =      5.82411  eV     1   --> B_2  G_4 D_2'  
     e(  7 -  8) =     13.83555  eV     2   --> E    G_5 D_5   

 **************************************************************************

 **************************************************************************

                    xk=(   0.00000,   0.00000,   0.98000  )

     Band symmetry, C_4v (4mm)  point group:

     e(  1 -  1) =     -2.59387  eV     1   --> A_1  G_1 D_1   
     e(  2 -  2) =     -2.31600  eV     1   --> B_2  G_4 D_2'  
     e(  3 -  4) =      2.39205  eV     2   --> E    G_5 D_5   
     e(  5 -  5) =      5.70974  eV     1   --> A_1  G_1 D_1   
     e(  6 -  6) =      5.78076  eV     1   --> B_2  G_4 D_2'  
     e(  7 -  8) =     13.89645  eV     2   --> E    G_5 D_5   

 **************************************************************************

 **************************************************************************

                    xk=(   0.00000,   0.00000,   1.00000  )

     zone border point and non-symmorphic group 
     symmetry decomposition not available

 **************************************************************************

     BANDS        :      0.75s CPU      0.79s WALL


   This run was terminated on:  16: 0:18  22Mar2023            

=------------------------------------------------------------------------------=
   JOB DONE.
=------------------------------------------------------------------------------=
