
     Program BANDS v.6.7MaX starts on 16Mar2023 at 14:36:57 

     This program is part of the open-source Quantum ESPRESSO suite
     for quantum simulation of materials; please cite
         "P. Giannozzi et al., J. Phys.:Condens. Matter 21 395502 (2009);
         "P. Giannozzi et al., J. Phys.:Condens. Matter 29 465901 (2017);
          URL http://www.quantum-espresso.org", 
     in publications or presentations arising from this work. More details at
     http://www.quantum-espresso.org/quote

     Parallel version (MPI), running on     1 processors

     MPI processes distributed on     1 nodes

     Reading xml data from directory:

     tmp/silicon.save/

     IMPORTANT: XC functional enforced from input :
     Exchange-correlation= PZ
                           (   1   1   0   0   0   0   0)
     Any further DFT definition will be discarded
     Please, verify this is what you really want


     G-vector sticks info
     --------------------
     sticks:   dense  smooth     PW     G-vecs:    dense   smooth      PW
     Sum         283     283    109                 3143     3143     725

     Reading collected, re-writing distributed wavefunctions
     high-symmetry point:  0.9000 0.8000 0.0000   x coordinate   0.0000
     high-symmetry point:  0.9000 0.8000 0.9000   x coordinate   0.9000

     Plottable bands (eV) written to file si_bands.dat.gnu
     Bands written to file si_bands.dat

 **************************************************************************

                    xk=(   0.90000,   0.80000,   0.00000  )

     point group C_s (m)    
     there are  2 classes
     the character table:

       E     s    
A'     1.00  1.00
A''    1.00 -1.00

     the symmetry operations in each class and the name of the first element:

     E        1
                                                                 
     s        2
                                                                 

     Band symmetry, C_s (m)     point group:

     e(  1 -  1) =     -1.64753  eV     1   --> A'             
     e(  2 -  2) =     -1.36577  eV     1   --> A''            
     e(  3 -  3) =      2.46538  eV     1   --> A'             
     e(  4 -  4) =      3.37239  eV     1   --> A''            
     e(  5 -  5) =      7.29663  eV     1   --> A''            
     e(  6 -  6) =      8.49621  eV     1   --> A'             
     e(  7 -  7) =     14.68208  eV     1   --> A'             
     e(  8 -  8) =     14.96606  eV     1   --> A''            

 **************************************************************************

 **************************************************************************

                    xk=(   0.90000,   0.80000,   0.10000  )

     point group C_1 (1)    
     there are  1 classes
     the character table:

       E    
A      1.00

     the symmetry operations in each class and the name of the first element:

     E        1
                                                                 

     Band symmetry, C_1 (1)     point group:

     e(  1 -  1) =     -2.22716  eV     1   --> A              
     e(  2 -  2) =     -0.76098  eV     1   --> A              
     e(  3 -  3) =      2.53279  eV     1   --> A              
     e(  4 -  4) =      3.41866  eV     1   --> A              
     e(  5 -  5) =      7.34054  eV     1   --> A              
     e(  6 -  6) =      8.56360  eV     1   --> A              
     e(  7 -  7) =     13.92867  eV     1   --> A              
     e(  8 -  8) =     15.11838  eV     1   --> A              

 **************************************************************************

 **************************************************************************

                    xk=(   0.90000,   0.80000,   0.20000  )

     Band symmetry, C_1 (1)     point group:

     e(  1 -  1) =     -2.88328  eV     1   --> A              
     e(  2 -  2) =     -0.03543  eV     1   --> A              
     e(  3 -  3) =      2.73405  eV     1   --> A              
     e(  4 -  4) =      3.56015  eV     1   --> A              
     e(  5 -  5) =      7.46662  eV     1   --> A              
     e(  6 -  6) =      8.76918  eV     1   --> A              
     e(  7 -  7) =     13.07739  eV     1   --> A              
     e(  8 -  8) =     14.22751  eV     1   --> A              

 **************************************************************************

 **************************************************************************

                    xk=(   0.90000,   0.80000,   0.30000  )

     Band symmetry, C_1 (1)     point group:

     e(  1 -  1) =     -3.48601  eV     1   --> A              
     e(  2 -  2) =      0.67056  eV     1   --> A              
     e(  3 -  3) =      3.06236  eV     1   --> A              
     e(  4 -  4) =      3.80353  eV     1   --> A              
     e(  5 -  5) =      7.66973  eV     1   --> A              
     e(  6 -  6) =      9.11548  eV     1   --> A              
     e(  7 -  7) =     12.26177  eV     1   --> A              
     e(  8 -  8) =     13.31284  eV     1   --> A              

 **************************************************************************

 **************************************************************************

                    xk=(   0.90000,   0.80000,   0.40000  )

     Band symmetry, C_1 (1)     point group:

     e(  1 -  1) =     -4.02323  eV     1   --> A              
     e(  2 -  2) =      1.33879  eV     1   --> A              
     e(  3 -  3) =      3.48857  eV     1   --> A              
     e(  4 -  4) =      4.16220  eV     1   --> A              
     e(  5 -  5) =      7.93957  eV     1   --> A              
     e(  6 -  6) =      9.60267  eV     1   --> A              
     e(  7 -  7) =     11.48050  eV     1   --> A              
     e(  8 -  8) =     12.43323  eV     1   --> A              

 **************************************************************************

 **************************************************************************

                    xk=(   0.90000,   0.80000,   0.50000  )

     Band symmetry, C_1 (1)     point group:

     e(  1 -  1) =     -4.48660  eV     1   --> A              
     e(  2 -  2) =      1.97387  eV     1   --> A              
     e(  3 -  3) =      3.96101  eV     1   --> A              
     e(  4 -  4) =      4.64395  eV     1   --> A              
     e(  5 -  5) =      8.25937  eV     1   --> A              
     e(  6 -  6) =     10.18884  eV     1   --> A              
     e(  7 -  7) =     10.76486  eV     1   --> A              
     e(  8 -  8) =     11.60535  eV     1   --> A              

 **************************************************************************

 **************************************************************************

                    xk=(   0.90000,   0.80000,   0.60000  )

     Band symmetry, C_1 (1)     point group:

     e(  1 -  1) =     -4.87107  eV     1   --> A              
     e(  2 -  2) =      2.59669  eV     1   --> A              
     e(  3 -  3) =      4.44470  eV     1   --> A              
     e(  4 -  4) =      5.20453  eV     1   --> A              
     e(  5 -  5) =      8.60097  eV     1   --> A              
     e(  6 -  6) =      9.95135  eV     1   --> A              
     e(  7 -  7) =     10.82528  eV     1   --> A              
     e(  8 -  8) =     11.05001  eV     1   --> A              

 **************************************************************************

 **************************************************************************

                    xk=(   0.90000,   0.80000,   0.70000  )

     Band symmetry, C_1 (1)     point group:

     e(  1 -  1) =     -5.17336  eV     1   --> A              
     e(  2 -  2) =      3.22680  eV     1   --> A              
     e(  3 -  3) =      4.93184  eV     1   --> A              
     e(  4 -  4) =      5.72074  eV     1   --> A              
     e(  5 -  5) =      8.86959  eV     1   --> A              
     e(  6 -  6) =      9.43419  eV     1   --> A              
     e(  7 -  7) =     10.14763  eV     1   --> A              
     e(  8 -  8) =     11.74447  eV     1   --> A              

 **************************************************************************

 **************************************************************************

                    xk=(   0.90000,   0.80000,   0.80000  )

     point group C_s (m)    
     there are  2 classes
     the character table:

       E     s    
A'     1.00  1.00
A''    1.00 -1.00

     the symmetry operations in each class and the name of the first element:

     E        1
                                                                 
     s        2
                                                                 

     Band symmetry, C_s (m)     point group:

     e(  1 -  1) =     -5.39135  eV     1   --> A'             
     e(  2 -  2) =      3.86810  eV     1   --> A'             
     e(  3 -  3) =      5.39739  eV     1   --> A'             
     e(  4 -  4) =      5.99011  eV     1   --> A''            
     e(  5 -  5) =      8.84378  eV     1   --> A'             
     e(  6 -  6) =      9.32645  eV     1   --> A''            
     e(  7 -  7) =      9.65731  eV     1   --> A'             
     e(  8 -  8) =     11.77301  eV     1   --> A'             

 **************************************************************************

 **************************************************************************

                    xk=(   0.90000,   0.80000,   0.90000  )

     Band symmetry, C_s (m)     point group:

     e(  1 -  1) =     -5.52233  eV     1   --> A'             
     e(  2 -  2) =      4.49710  eV     1   --> A'             
     e(  3 -  3) =      5.69672  eV     1   --> A''            
     e(  4 -  4) =      5.92438  eV     1   --> A'             
     e(  5 -  5) =      8.79735  eV     1   --> A'             
     e(  6 -  6) =      9.19477  eV     1   --> A'             
     e(  7 -  7) =      9.64783  eV     1   --> A''            
     e(  8 -  8) =     11.21718  eV     1   --> A'             

 **************************************************************************

     BANDS        :      0.08s CPU      0.08s WALL


   This run was terminated on:  14:36:57  16Mar2023            

=------------------------------------------------------------------------------=
   JOB DONE.
=------------------------------------------------------------------------------=
