
     Program PWSCF v.6.7MaX starts on  9Apr2023 at 11:51:17 

     This program is part of the open-source Quantum ESPRESSO suite
     for quantum simulation of materials; please cite
         "P. Giannozzi et al., J. Phys.:Condens. Matter 21 395502 (2009);
         "P. Giannozzi et al., J. Phys.:Condens. Matter 29 465901 (2017);
          URL http://www.quantum-espresso.org", 
     in publications or presentations arising from this work. More details at
     http://www.quantum-espresso.org/quote

     Parallel version (MPI), running on     1 processors

     MPI processes distributed on     1 nodes
     Reading input from si.bandspy.in

     Current dimensions of program PWSCF are:
     Max number of different atomic species (ntypx) = 10
     Max number of k-points (npk) =  40000
     Max angular momentum in pseudopotentials (lmaxx) =  3

     Subspace diagonalization in iterative solution of the eigenvalue problem:
     a serial algorithm will be used


     G-vector sticks info
     --------------------
     sticks:   dense  smooth     PW     G-vecs:    dense   smooth      PW
     Sum         793     793    235                14649    14649    2277



     bravais-lattice index     =            2
     lattice parameter (alat)  =      10.7000  a.u.
     unit-cell volume          =     306.2607 (a.u.)^3
     number of atoms/cell      =            2
     number of atomic types    =            1
     number of electrons       =         8.00
     number of Kohn-Sham states=            8
     kinetic-energy cutoff     =      50.0000  Ry
     charge density cutoff     =     200.0000  Ry
     scf convergence threshold =      1.0E-08
     mixing beta               =       0.7000
     number of iterations used =            8  plain     mixing
     Exchange-correlation=  SLA  PW   PBE  PBE
                           (   1   4   3   4   0   0   0)

     celldm(1)=  10.700000  celldm(2)=   0.000000  celldm(3)=   0.000000
     celldm(4)=   0.000000  celldm(5)=   0.000000  celldm(6)=   0.000000

     crystal axes: (cart. coord. in units of alat)
               a(1) = (  -0.500000   0.000000   0.500000 )  
               a(2) = (   0.000000   0.500000   0.500000 )  
               a(3) = (  -0.500000   0.500000   0.000000 )  

     reciprocal axes: (cart. coord. in units 2 pi/alat)
               b(1) = ( -1.000000 -1.000000  1.000000 )  
               b(2) = (  1.000000  1.000000  1.000000 )  
               b(3) = ( -1.000000  1.000000 -1.000000 )  


     PseudoPot. # 1 for Si read from file:
     pseudo/Si.pbe-rrkj.UPF
     MD5 check sum: cf7ab5690cd9a85b22c4813f7e365554
     Pseudo is Norm-conserving, Zval =  4.0
     Generated by new atomic code, or converted to UPF format
     Using radial grid of  883 points,  3 beta functions with: 
                l(1) =   0
                l(2) =   0
                l(3) =   1

     atomic species   valence    mass     pseudopotential
        Si             4.00    28.08550     Si( 1.00)

     48 Sym. Ops., with inversion, found (24 have fractional translation)



   Cartesian axes

     site n.     atom                  positions (alat units)
         1           Si  tau(   1) = (   0.0000000   0.0000000   0.0000000  )
         2           Si  tau(   2) = (   0.2500000   0.2500000   0.2500000  )

     number of k points=    20
                       cart. coord. in units 2pi/alat
        k(    1) = (  -1.0000000   0.0000000   0.0000000), wk =   0.0000000
        k(    2) = (  -0.8947000   0.0000000   0.0000000), wk =   0.0105263
        k(    3) = (  -0.7895000   0.0000000   0.0000000), wk =   0.0210526
        k(    4) = (  -0.6842000   0.0000000   0.0000000), wk =   0.0315789
        k(    5) = (  -0.5789000   0.0000000   0.0000000), wk =   0.0421053
        k(    6) = (  -0.4737000   0.0000000   0.0000000), wk =   0.0526316
        k(    7) = (  -0.3684000   0.0000000   0.0000000), wk =   0.0631579
        k(    8) = (  -0.2632000   0.0000000   0.0000000), wk =   0.0736842
        k(    9) = (  -0.1579000   0.0000000   0.0000000), wk =   0.0842105
        k(   10) = (  -0.0526000   0.0000000   0.0000000), wk =   0.0947368
        k(   11) = (   0.0526000   0.0000000   0.0000000), wk =   0.1052632
        k(   12) = (   0.1579000   0.0000000   0.0000000), wk =   0.1157895
        k(   13) = (   0.2632000   0.0000000   0.0000000), wk =   0.1263158
        k(   14) = (   0.3684000   0.0000000   0.0000000), wk =   0.1368421
        k(   15) = (   0.4737000   0.0000000   0.0000000), wk =   0.1473684
        k(   16) = (   0.5789000   0.0000000   0.0000000), wk =   0.1578947
        k(   17) = (   0.6842000   0.0000000   0.0000000), wk =   0.1684211
        k(   18) = (   0.7895000   0.0000000   0.0000000), wk =   0.1789474
        k(   19) = (   0.8947000   0.0000000   0.0000000), wk =   0.1894737
        k(   20) = (   1.0000000   0.0000000   0.0000000), wk =   0.2000000

     Dense  grid:    14649 G-vectors     FFT dimensions: (  36,  36,  36)

     Estimated max dynamical RAM per process >      15.36 MB

     Initial potential from superposition of free atoms

     starting charge    7.99889, renormalised to    8.00000
     Starting wfcs are    8 randomized atomic wfcs

     total cpu time spent up to now is        0.2 secs

     Self-consistent Calculation

     iteration #  1     ecut=    50.00 Ry     beta= 0.70
     Davidson diagonalization with overlap
     ethr =  1.00E-02,  avg # of iterations =  3.8

     total cpu time spent up to now is        0.9 secs

     total energy              =     -15.38746040 Ry
     estimated scf accuracy    <       0.09491089 Ry

     iteration #  2     ecut=    50.00 Ry     beta= 0.70
     Davidson diagonalization with overlap
     ethr =  1.19E-03,  avg # of iterations =  1.1

     total cpu time spent up to now is        1.2 secs

     total energy              =     -15.39297195 Ry
     estimated scf accuracy    <       0.00469867 Ry

     iteration #  3     ecut=    50.00 Ry     beta= 0.70
     Davidson diagonalization with overlap
     ethr =  5.87E-05,  avg # of iterations =  2.9

     total cpu time spent up to now is        1.7 secs

     total energy              =     -15.39350034 Ry
     estimated scf accuracy    <       0.00008055 Ry

     iteration #  4     ecut=    50.00 Ry     beta= 0.70
     Davidson diagonalization with overlap
     ethr =  1.01E-06,  avg # of iterations =  4.0

     total cpu time spent up to now is        2.3 secs

     total energy              =     -15.39352902 Ry
     estimated scf accuracy    <       0.00000031 Ry

     iteration #  5     ecut=    50.00 Ry     beta= 0.70
     Davidson diagonalization with overlap
     ethr =  3.87E-09,  avg # of iterations =  3.9

     total cpu time spent up to now is        2.8 secs

     total energy              =     -15.39352973 Ry
     estimated scf accuracy    <       0.00000003 Ry

     iteration #  6     ecut=    50.00 Ry     beta= 0.70
     Davidson diagonalization with overlap
     ethr =  3.97E-10,  avg # of iterations =  2.0

     total cpu time spent up to now is        3.2 secs

     End of self-consistent calculation

          k =-1.0000 0.0000 0.0000 (  1804 PWs)   bands (ev):

    -2.0890  -2.0890   2.7308   2.7308   6.1664   6.1664  14.3543  14.3543

          k =-0.8947 0.0000 0.0000 (  1800 PWs)   bands (ev):

    -2.7938  -1.3315   2.7709   2.7709   6.0389   6.4113  13.8676  13.8677

          k =-0.7895 0.0000 0.0000 (  1808 PWs)   bands (ev):

    -3.4371  -0.5314   2.8906   2.8906   6.0227   6.7767  13.0233  13.0233

          k =-0.6842 0.0000 0.0000 (  1832 PWs)   bands (ev):

    -4.0132   0.3028   3.0884   3.0884   6.1097   7.2605  12.1373  12.1373

          k =-0.5789 0.0000 0.0000 (  1832 PWs)   bands (ev):

    -4.5159   1.1608   3.3610   3.3610   6.2894   7.8451  11.2599  11.2599

          k =-0.4737 0.0000 0.0000 (  1828 PWs)   bands (ev):

    -4.9403   2.0325   3.7025   3.7025   6.5472   8.4695  10.4067  10.4067

          k =-0.3684 0.0000 0.0000 (  1840 PWs)   bands (ev):

    -5.2839   2.9104   4.1033   4.1033   6.8620   8.9249   9.5897   9.5897

          k =-0.2632 0.0000 0.0000 (  1840 PWs)   bands (ev):

    -5.5434   3.7788   4.5423   4.5423   7.1985   8.7772   8.8339   8.8339

          k =-0.1579 0.0000 0.0000 (  1840 PWs)   bands (ev):

    -5.7175   4.6001   4.9732   4.9732   7.5006   8.1452   8.1886   8.1886

          k =-0.0526 0.0000 0.0000 (  1836 PWs)   bands (ev):

    -5.8049   5.2230   5.2806   5.2806   7.5547   7.6874   7.7729   7.7729

          k = 0.0526 0.0000 0.0000 (  1836 PWs)   bands (ev):

    -5.8049   5.2230   5.2806   5.2806   7.5547   7.6874   7.7729   7.7729

          k = 0.1579 0.0000 0.0000 (  1840 PWs)   bands (ev):

    -5.7175   4.6001   4.9732   4.9732   7.5006   8.1452   8.1886   8.1886

          k = 0.2632 0.0000 0.0000 (  1840 PWs)   bands (ev):

    -5.5434   3.7788   4.5423   4.5423   7.1985   8.7772   8.8339   8.8339

          k = 0.3684 0.0000 0.0000 (  1840 PWs)   bands (ev):

    -5.2839   2.9104   4.1033   4.1033   6.8620   8.9249   9.5897   9.5897

          k = 0.4737 0.0000 0.0000 (  1828 PWs)   bands (ev):

    -4.9403   2.0325   3.7025   3.7025   6.5472   8.4695  10.4067  10.4067

          k = 0.5789 0.0000 0.0000 (  1832 PWs)   bands (ev):

    -4.5159   1.1608   3.3610   3.3610   6.2894   7.8451  11.2599  11.2599

          k = 0.6842 0.0000 0.0000 (  1832 PWs)   bands (ev):

    -4.0132   0.3028   3.0884   3.0884   6.1097   7.2605  12.1373  12.1373

          k = 0.7895 0.0000 0.0000 (  1808 PWs)   bands (ev):

    -3.4371  -0.5314   2.8906   2.8906   6.0227   6.7767  13.0233  13.0233

          k = 0.8947 0.0000 0.0000 (  1800 PWs)   bands (ev):

    -2.7938  -1.3315   2.7709   2.7709   6.0389   6.4113  13.8676  13.8676

          k = 1.0000 0.0000 0.0000 (  1804 PWs)   bands (ev):

    -2.0890  -2.0890   2.7308   2.7308   6.1664   6.1664  14.3543  14.3544

     highest occupied, lowest unoccupied level (ev):     5.2806    6.0227

!    total energy              =     -15.39352974 Ry
     estimated scf accuracy    <          2.4E-09 Ry

     The total energy is the sum of the following terms:
     one-electron contribution =       4.08913550 Ry
     hartree contribution      =       1.40035769 Ry
     xc contribution           =      -4.77297266 Ry
     ewald contribution        =     -16.11005026 Ry

     convergence has been achieved in   6 iterations

     Writing output data file tmp/silicon.save/

     init_run     :      0.20s CPU      0.21s WALL (       1 calls)
     electrons    :      2.95s CPU      2.97s WALL (       1 calls)

     Called by init_run:
     wfcinit      :      0.15s CPU      0.15s WALL (       1 calls)
     potinit      :      0.02s CPU      0.02s WALL (       1 calls)
     hinit0       :      0.03s CPU      0.03s WALL (       1 calls)

     Called by electrons:
     c_bands      :      2.47s CPU      2.49s WALL (       6 calls)
     sum_band     :      0.38s CPU      0.38s WALL (       6 calls)
     v_of_rho     :      0.10s CPU      0.10s WALL (       7 calls)
     mix_rho      :      0.01s CPU      0.01s WALL (       6 calls)

     Called by c_bands:
     init_us_2    :      0.05s CPU      0.05s WALL (     260 calls)
     cegterg      :      2.42s CPU      2.44s WALL (     120 calls)

     Called by *egterg:
     cdiaghg      :      0.02s CPU      0.03s WALL (     473 calls)
     h_psi        :      2.10s CPU      2.11s WALL (     493 calls)
     g_psi        :      0.02s CPU      0.02s WALL (     353 calls)

     Called by h_psi:
     h_psi:calbec :      0.07s CPU      0.07s WALL (     493 calls)
     vloc_psi     :      1.94s CPU      1.95s WALL (     493 calls)
     add_vuspsi   :      0.08s CPU      0.08s WALL (     493 calls)

     General routines
     calbec       :      0.07s CPU      0.07s WALL (     493 calls)
     fft          :      0.04s CPU      0.04s WALL (      69 calls)
     ffts         :      0.00s CPU      0.00s WALL (       6 calls)
     fftw         :      1.97s CPU      1.98s WALL (    6728 calls)

     Parallel routines

     PWSCF        :      3.18s CPU      3.21s WALL


   This run was terminated on:  11:51:21   9Apr2023            

=------------------------------------------------------------------------------=
   JOB DONE.
=------------------------------------------------------------------------------=
