
     Program PWSCF v.6.7MaX starts on 12Apr2023 at 13:13:43 

     This program is part of the open-source Quantum ESPRESSO suite
     for quantum simulation of materials; please cite
         "P. Giannozzi et al., J. Phys.:Condens. Matter 21 395502 (2009);
         "P. Giannozzi et al., J. Phys.:Condens. Matter 29 465901 (2017);
          URL http://www.quantum-espresso.org", 
     in publications or presentations arising from this work. More details at
     http://www.quantum-espresso.org/quote

     Parallel version (MPI), running on     1 processors

     MPI processes distributed on     1 nodes
     Reading input from si.bandspy.in

     Current dimensions of program PWSCF are:
     Max number of different atomic species (ntypx) = 10
     Max number of k-points (npk) =  40000
     Max angular momentum in pseudopotentials (lmaxx) =  3

     Atomic positions and unit cell read from directory:
     tmp/silicon.save/


     Subspace diagonalization in iterative solution of the eigenvalue problem:
     a serial algorithm will be used


     G-vector sticks info
     --------------------
     sticks:   dense  smooth     PW     G-vecs:    dense   smooth      PW
     Sum         793     793    223                14649    14649    2229



     bravais-lattice index     =            2
     lattice parameter (alat)  =      10.7000  a.u.
     unit-cell volume          =     306.2607 (a.u.)^3
     number of atoms/cell      =            2
     number of atomic types    =            1
     number of electrons       =         8.00
     number of Kohn-Sham states=            8
     kinetic-energy cutoff     =      50.0000  Ry
     charge density cutoff     =     200.0000  Ry
     Exchange-correlation=  SLA  PW   PBE  PBE
                           (   1   4   3   4   0   0   0)

     celldm(1)=  10.700000  celldm(2)=   0.000000  celldm(3)=   0.000000
     celldm(4)=   0.000000  celldm(5)=   0.000000  celldm(6)=   0.000000

     crystal axes: (cart. coord. in units of alat)
               a(1) = (  -0.500000   0.000000   0.500000 )  
               a(2) = (   0.000000   0.500000   0.500000 )  
               a(3) = (  -0.500000   0.500000   0.000000 )  

     reciprocal axes: (cart. coord. in units 2 pi/alat)
               b(1) = ( -1.000000 -1.000000  1.000000 )  
               b(2) = (  1.000000  1.000000  1.000000 )  
               b(3) = ( -1.000000  1.000000 -1.000000 )  


     PseudoPot. # 1 for Si read from file:
     pseudo/Si.pbe-rrkj.UPF
     MD5 check sum: cf7ab5690cd9a85b22c4813f7e365554
     Pseudo is Norm-conserving, Zval =  4.0
     Generated by new atomic code, or converted to UPF format
     Using radial grid of  883 points,  3 beta functions with: 
                l(1) =   0
                l(2) =   0
                l(3) =   1

     atomic species   valence    mass     pseudopotential
        Si             4.00    28.08550     Si( 1.00)

     48 Sym. Ops., with inversion, found (24 have fractional translation)



   Cartesian axes

     site n.     atom                  positions (alat units)
         1           Si  tau(   1) = (   0.0000000   0.0000000   0.0000000  )
         2           Si  tau(   2) = (   0.2500000   0.2500000   0.2500000  )

     number of k points=    20
                       cart. coord. in units 2pi/alat
        k(    1) = (   0.0000000   0.0000000   0.0000000), wk =   0.0000000
        k(    2) = (   0.0263000   0.0263000   0.0263000), wk =   0.0105263
        k(    3) = (   0.0526000   0.0526000   0.0526000), wk =   0.0210526
        k(    4) = (   0.0789000   0.0789000   0.0789000), wk =   0.0315789
        k(    5) = (   0.1053000   0.1053000   0.1053000), wk =   0.0421053
        k(    6) = (   0.1316000   0.1316000   0.1316000), wk =   0.0526316
        k(    7) = (   0.1579000   0.1579000   0.1579000), wk =   0.0631579
        k(    8) = (   0.1842000   0.1842000   0.1842000), wk =   0.0736842
        k(    9) = (   0.2105000   0.2105000   0.2105000), wk =   0.0842105
        k(   10) = (   0.2368000   0.2368000   0.2368000), wk =   0.0947368
        k(   11) = (   0.2632000   0.2632000   0.2632000), wk =   0.1052632
        k(   12) = (   0.2895000   0.2895000   0.2895000), wk =   0.1157895
        k(   13) = (   0.3158000   0.3158000   0.3158000), wk =   0.1263158
        k(   14) = (   0.3421000   0.3421000   0.3421000), wk =   0.1368421
        k(   15) = (   0.3684000   0.3684000   0.3684000), wk =   0.1473684
        k(   16) = (   0.3947000   0.3947000   0.3947000), wk =   0.1578947
        k(   17) = (   0.4211000   0.4211000   0.4211000), wk =   0.1684211
        k(   18) = (   0.4474000   0.4474000   0.4474000), wk =   0.1789474
        k(   19) = (   0.4737000   0.4737000   0.4737000), wk =   0.1894737
        k(   20) = (   0.5000000   0.5000000   0.5000000), wk =   0.2000000

     Dense  grid:    14649 G-vectors     FFT dimensions: (  36,  36,  36)

     Estimated max dynamical RAM per process >       6.74 MB

     The potential is recalculated from file :
     tmp/silicon.save/charge-density

     Starting wfcs are    8 randomized atomic wfcs

     Band Structure Calculation
     Davidson diagonalization with overlap

     ethr =  1.25E-10,  avg # of iterations = 27.8

     total cpu time spent up to now is        3.2 secs

     End of band structure calculation

          k = 0.0000 0.0000 0.0000 (  1837 PWs)   bands (ev):

    -6.1020   4.9926   4.9926   4.9926   7.0776   7.4984   7.4984   7.4984

          k = 0.0263 0.0263 0.0263 (  1834 PWs)   bands (ev):

    -6.0939   4.8766   4.9790   4.9790   7.1456   7.5184   7.5184   7.5327

          k = 0.0526 0.0526 0.0526 (  1829 PWs)   bands (ev):

    -6.0695   4.5824   4.9399   4.9399   7.2231   7.5761   7.5761   7.7096

          k = 0.0789 0.0789 0.0789 (  1841 PWs)   bands (ev):

    -6.0289   4.1939   4.8794   4.8794   7.2081   7.6657   7.6657   8.0505

          k = 0.1053 0.1053 0.1053 (  1841 PWs)   bands (ev):

    -5.9720   3.7601   4.8030   4.8030   7.1452   7.7790   7.7790   8.4671

          k = 0.1316 0.1316 0.1316 (  1841 PWs)   bands (ev):

    -5.8995   3.3091   4.7168   4.7168   7.0609   7.9057   7.9057   8.9111

          k = 0.1579 0.1579 0.1579 (  1844 PWs)   bands (ev):

    -5.8115   2.8521   4.6255   4.6255   6.9658   8.0358   8.0358   9.3665

          k = 0.1842 0.1842 0.1842 (  1841 PWs)   bands (ev):

    -5.7083   2.3964   4.5328   4.5328   6.8658   8.1593   8.1593   9.8254

          k = 0.2105 0.2105 0.2105 (  1841 PWs)   bands (ev):

    -5.5906   1.9469   4.4419   4.4419   6.7654   8.2673   8.2673  10.2832

          k = 0.2368 0.2368 0.2368 (  1841 PWs)   bands (ev):

    -5.4591   1.5071   4.3549   4.3549   6.6677   8.3527   8.3527  10.7366

          k = 0.2632 0.2632 0.2632 (  1847 PWs)   bands (ev):

    -5.3141   1.0785   4.2731   4.2731   6.5746   8.4121   8.4121  11.1829

          k = 0.2895 0.2895 0.2895 (  1841 PWs)   bands (ev):

    -5.1582   0.6670   4.1983   4.1983   6.4886   8.4454   8.4454  11.6104

          k = 0.3158 0.3158 0.3158 (  1853 PWs)   bands (ev):

    -4.9929   0.2742   4.1312   4.1312   6.4107   8.4565   8.4565  12.0020

          k = 0.3421 0.3421 0.3421 (  1853 PWs)   bands (ev):

    -4.8210  -0.0962   4.0722   4.0722   6.3418   8.4513   8.4513  12.3167

          k = 0.3684 0.3684 0.3684 (  1844 PWs)   bands (ev):

    -4.6467  -0.4395   4.0217   4.0217   6.2826   8.4357   8.4357  12.5030

          k = 0.3947 0.3947 0.3947 (  1838 PWs)   bands (ev):

    -4.4762  -0.7489   3.9802   3.9802   6.2335   8.4155   8.4155  12.5693

          k = 0.4211 0.4211 0.4211 (  1838 PWs)   bands (ev):

    -4.3182  -1.0158   3.9476   3.9476   6.1950   8.3953   8.3953  12.5754

          k = 0.4474 0.4474 0.4474 (  1826 PWs)   bands (ev):

    -4.1868  -1.2247   3.9243   3.9243   6.1674   8.3785   8.3785  12.5629

          k = 0.4737 0.4737 0.4737 (  1826 PWs)   bands (ev):

    -4.0976  -1.3605   3.9104   3.9104   6.1507   8.3675   8.3675  12.5506

          k = 0.5000 0.5000 0.5000 (  1850 PWs)   bands (ev):

    -4.0657  -1.4079   3.9057   3.9057   6.1452   8.3637   8.3637  12.5458

     Writing output data file tmp/silicon.save/

     init_run     :      0.05s CPU      0.06s WALL (       1 calls)
     electrons    :      3.03s CPU      3.04s WALL (       1 calls)

     Called by init_run:
     wfcinit      :      0.00s CPU      0.00s WALL (       1 calls)
     potinit      :      0.01s CPU      0.02s WALL (       1 calls)
     hinit0       :      0.03s CPU      0.03s WALL (       1 calls)

     Called by electrons:
     c_bands      :      3.03s CPU      3.04s WALL (       1 calls)
     v_of_rho     :      0.01s CPU      0.02s WALL (       1 calls)

     Called by c_bands:
     init_us_2    :      0.00s CPU      0.00s WALL (      20 calls)
     cegterg      :      2.88s CPU      2.89s WALL (      36 calls)

     Called by *egterg:
     cdiaghg      :      0.03s CPU      0.03s WALL (     576 calls)
     h_psi        :      2.31s CPU      2.32s WALL (     612 calls)
     g_psi        :      0.03s CPU      0.03s WALL (     556 calls)

     Called by h_psi:
     h_psi:calbec :      0.08s CPU      0.08s WALL (     612 calls)
     vloc_psi     :      2.13s CPU      2.15s WALL (     612 calls)
     add_vuspsi   :      0.09s CPU      0.09s WALL (     612 calls)

     General routines
     calbec       :      0.08s CPU      0.08s WALL (     612 calls)
     fft          :      0.01s CPU      0.01s WALL (      10 calls)
     fftw         :      1.86s CPU      1.87s WALL (    6552 calls)
     davcio       :      0.00s CPU      0.00s WALL (      40 calls)

     Parallel routines

     PWSCF        :      3.17s CPU      3.20s WALL


   This run was terminated on:  13:13:46  12Apr2023            

=------------------------------------------------------------------------------=
   JOB DONE.
=------------------------------------------------------------------------------=
