
     Program PWSCF v.6.7MaX starts on 12Apr2023 at 13:33: 1 

     This program is part of the open-source Quantum ESPRESSO suite
     for quantum simulation of materials; please cite
         "P. Giannozzi et al., J. Phys.:Condens. Matter 21 395502 (2009);
         "P. Giannozzi et al., J. Phys.:Condens. Matter 29 465901 (2017);
          URL http://www.quantum-espresso.org", 
     in publications or presentations arising from this work. More details at
     http://www.quantum-espresso.org/quote

     Parallel version (MPI), running on     1 processors

     MPI processes distributed on     1 nodes
     Reading input from si.bandspy.in

     Current dimensions of program PWSCF are:
     Max number of different atomic species (ntypx) = 10
     Max number of k-points (npk) =  40000
     Max angular momentum in pseudopotentials (lmaxx) =  3

     Atomic positions and unit cell read from directory:
     tmp/silicon.save/


     Subspace diagonalization in iterative solution of the eigenvalue problem:
     a serial algorithm will be used


     G-vector sticks info
     --------------------
     sticks:   dense  smooth     PW     G-vecs:    dense   smooth      PW
     Sum         793     793    253                14649    14649    2733



     bravais-lattice index     =            2
     lattice parameter (alat)  =      10.7000  a.u.
     unit-cell volume          =     306.2607 (a.u.)^3
     number of atoms/cell      =            2
     number of atomic types    =            1
     number of electrons       =         8.00
     number of Kohn-Sham states=            8
     kinetic-energy cutoff     =      50.0000  Ry
     charge density cutoff     =     200.0000  Ry
     Exchange-correlation=  SLA  PW   PBE  PBE
                           (   1   4   3   4   0   0   0)

     celldm(1)=  10.700000  celldm(2)=   0.000000  celldm(3)=   0.000000
     celldm(4)=   0.000000  celldm(5)=   0.000000  celldm(6)=   0.000000

     crystal axes: (cart. coord. in units of alat)
               a(1) = (  -0.500000   0.000000   0.500000 )  
               a(2) = (   0.000000   0.500000   0.500000 )  
               a(3) = (  -0.500000   0.500000   0.000000 )  

     reciprocal axes: (cart. coord. in units 2 pi/alat)
               b(1) = ( -1.000000 -1.000000  1.000000 )  
               b(2) = (  1.000000  1.000000  1.000000 )  
               b(3) = ( -1.000000  1.000000 -1.000000 )  


     PseudoPot. # 1 for Si read from file:
     pseudo/Si.pbe-rrkj.UPF
     MD5 check sum: cf7ab5690cd9a85b22c4813f7e365554
     Pseudo is Norm-conserving, Zval =  4.0
     Generated by new atomic code, or converted to UPF format
     Using radial grid of  883 points,  3 beta functions with: 
                l(1) =   0
                l(2) =   0
                l(3) =   1

     atomic species   valence    mass     pseudopotential
        Si             4.00    28.08550     Si( 1.00)

     48 Sym. Ops., with inversion, found (24 have fractional translation)



   Cartesian axes

     site n.     atom                  positions (alat units)
         1           Si  tau(   1) = (   0.0000000   0.0000000   0.0000000  )
         2           Si  tau(   2) = (   0.2500000   0.2500000   0.2500000  )

     number of k points=    41
                       cart. coord. in units 2pi/alat
        k(    1) = (  -1.0000000  -0.8500000  -1.0000000), wk =   0.0000000
        k(    2) = (  -1.0000000  -0.8500000  -0.9500000), wk =   0.0024390
        k(    3) = (  -1.0000000  -0.8500000  -0.9000000), wk =   0.0048780
        k(    4) = (  -1.0000000  -0.8500000  -0.8500000), wk =   0.0073171
        k(    5) = (  -1.0000000  -0.8500000  -0.8000000), wk =   0.0097561
        k(    6) = (  -1.0000000  -0.8500000  -0.7500000), wk =   0.0121951
        k(    7) = (  -1.0000000  -0.8500000  -0.7000000), wk =   0.0146341
        k(    8) = (  -1.0000000  -0.8500000  -0.6500000), wk =   0.0170732
        k(    9) = (  -1.0000000  -0.8500000  -0.6000000), wk =   0.0195122
        k(   10) = (  -1.0000000  -0.8500000  -0.5500000), wk =   0.0219512
        k(   11) = (  -1.0000000  -0.8500000  -0.5000000), wk =   0.0243902
        k(   12) = (  -1.0000000  -0.8500000  -0.4500000), wk =   0.0268293
        k(   13) = (  -1.0000000  -0.8500000  -0.4000000), wk =   0.0292683
        k(   14) = (  -1.0000000  -0.8500000  -0.3500000), wk =   0.0317073
        k(   15) = (  -1.0000000  -0.8500000  -0.3000000), wk =   0.0341463
        k(   16) = (  -1.0000000  -0.8500000  -0.2500000), wk =   0.0365854
        k(   17) = (  -1.0000000  -0.8500000  -0.2000000), wk =   0.0390244
        k(   18) = (  -1.0000000  -0.8500000  -0.1500000), wk =   0.0414634
        k(   19) = (  -1.0000000  -0.8500000  -0.1000000), wk =   0.0439024
        k(   20) = (  -1.0000000  -0.8500000  -0.0500000), wk =   0.0463415
        k(   21) = (  -1.0000000  -0.8500000   0.0000000), wk =   0.0487805
        k(   22) = (  -1.0000000  -0.8500000   0.0500000), wk =   0.0512195
        k(   23) = (  -1.0000000  -0.8500000   0.1000000), wk =   0.0536585
        k(   24) = (  -1.0000000  -0.8500000   0.1500000), wk =   0.0560976
        k(   25) = (  -1.0000000  -0.8500000   0.2000000), wk =   0.0585366
        k(   26) = (  -1.0000000  -0.8500000   0.2500000), wk =   0.0609756
        k(   27) = (  -1.0000000  -0.8500000   0.3000000), wk =   0.0634146
        k(   28) = (  -1.0000000  -0.8500000   0.3500000), wk =   0.0658537
        k(   29) = (  -1.0000000  -0.8500000   0.4000000), wk =   0.0682927
        k(   30) = (  -1.0000000  -0.8500000   0.4500000), wk =   0.0707317
        k(   31) = (  -1.0000000  -0.8500000   0.5000000), wk =   0.0731707
        k(   32) = (  -1.0000000  -0.8500000   0.5500000), wk =   0.0756098
        k(   33) = (  -1.0000000  -0.8500000   0.6000000), wk =   0.0780488
        k(   34) = (  -1.0000000  -0.8500000   0.6500000), wk =   0.0804878
        k(   35) = (  -1.0000000  -0.8500000   0.7000000), wk =   0.0829268
        k(   36) = (  -1.0000000  -0.8500000   0.7500000), wk =   0.0853659
        k(   37) = (  -1.0000000  -0.8500000   0.8000000), wk =   0.0878049
        k(   38) = (  -1.0000000  -0.8500000   0.8500000), wk =   0.0902439
        k(   39) = (  -1.0000000  -0.8500000   0.9000000), wk =   0.0926829
        k(   40) = (  -1.0000000  -0.8500000   0.9500000), wk =   0.0951220
        k(   41) = (  -1.0000000  -0.8500000   1.0000000), wk =   0.0975610

     Dense  grid:    14649 G-vectors     FFT dimensions: (  36,  36,  36)

     Estimated max dynamical RAM per process >       6.74 MB

     The potential is recalculated from file :
     tmp/silicon.save/charge-density

     Starting wfcs are    8 randomized atomic wfcs

     Band Structure Calculation
     Davidson diagonalization with overlap

     ethr =  1.25E-10,  avg # of iterations = 27.8

     total cpu time spent up to now is        7.0 secs

     End of band structure calculation

          k =-1.0000-0.8500-1.0000 (  1840 PWs)   bands (ev):

    -6.0138   4.3178   4.6858   4.6858   7.2999   7.7250   7.9144   7.9144

          k =-1.0000-0.8500-0.9500 (  1841 PWs)   bands (ev):

    -6.0041   4.1752   4.6461   4.7765   7.3525   7.5745   7.8931   8.1236

          k =-1.0000-0.8500-0.9000 (  1845 PWs)   bands (ev):

    -5.9749   3.9066   4.5358   4.8820   7.4427   7.4999   7.8328   8.4365

          k =-1.0000-0.8500-0.8500 (  1845 PWs)   bands (ev):

    -5.9263   3.6014   4.3754   4.9012   7.4197   7.6829   7.7784   8.7667

          k =-1.0000-0.8500-0.8000 (  1848 PWs)   bands (ev):

    -5.8583   3.2792   4.1853   4.8203   7.5113   7.5978   8.0213   9.0856

          k =-1.0000-0.8500-0.7500 (  1840 PWs)   bands (ev):

    -5.7712   2.9470   3.9812   4.6600   7.4584   7.6927   8.3405   9.3542

          k =-1.0000-0.8500-0.7000 (  1842 PWs)   bands (ev):

    -5.6650   2.6081   3.7734   4.4509   7.3072   7.9275   8.6904   9.5128

          k =-1.0000-0.8500-0.6500 (  1846 PWs)   bands (ev):

    -5.5399   2.2640   3.5690   4.2176   7.1528   8.1764   9.0620   9.5211

          k =-1.0000-0.8500-0.6000 (  1841 PWs)   bands (ev):

    -5.3962   1.9154   3.3726   3.9768   7.0007   8.3802   9.4486   9.4500

          k =-1.0000-0.8500-0.5500 (  1831 PWs)   bands (ev):

    -5.2341   1.5626   3.1872   3.7390   6.8556   8.4348   9.4624   9.8505

          k =-1.0000-0.8500-0.5000 (  1834 PWs)   bands (ev):

    -5.0540   1.2057   3.0152   3.5109   6.7209   8.2985   9.6505  10.2607

          k =-1.0000-0.8500-0.4500 (  1837 PWs)   bands (ev):

    -4.8561   0.8454   2.8581   3.2969   6.5994   8.0650   9.9430  10.6786

          k =-1.0000-0.8500-0.4000 (  1830 PWs)   bands (ev):

    -4.6410   0.4822   2.7171   3.0999   6.4935   7.8055  10.2806  11.1023

          k =-1.0000-0.8500-0.3500 (  1822 PWs)   bands (ev):

    -4.4092   0.1171   2.5933   2.9217   6.4048   7.5495  10.6404  11.5303

          k =-1.0000-0.8500-0.3000 (  1817 PWs)   bands (ev):

    -4.1612  -0.2487   2.4874   2.7635   6.3350   7.3091  11.0138  11.9606

          k =-1.0000-0.8500-0.2500 (  1819 PWs)   bands (ev):

    -3.8975  -0.6138   2.3999   2.6261   6.2853   7.0900  11.3972  12.3901

          k =-1.0000-0.8500-0.2000 (  1817 PWs)   bands (ev):

    -3.6191  -0.9767   2.3315   2.5097   6.2569   6.8952  11.7882  12.8122

          k =-1.0000-0.8500-0.1500 (  1813 PWs)   bands (ev):

    -3.3266  -1.3358   2.2825   2.4145   6.2508   6.7260  12.1849  13.2091

          k =-1.0000-0.8500-0.1000 (  1817 PWs)   bands (ev):

    -3.0210  -1.6895   2.2532   2.3405   6.2679   6.5829  12.5834  13.5202

          k =-1.0000-0.8500-0.0500 (  1812 PWs)   bands (ev):

    -2.7033  -2.0362   2.2442   2.2876   6.3090   6.4659  12.9752  13.5774

          k =-1.0000-0.8500 0.0000 (  1804 PWs)   bands (ev):

    -2.3746  -2.3746   2.2555   2.2555   6.3748   6.3748  13.3354  13.3354

          k =-1.0000-0.8500 0.0500 (  1812 PWs)   bands (ev):

    -2.7033  -2.0362   2.2442   2.2876   6.3090   6.4659  12.9752  13.5774

          k =-1.0000-0.8500 0.1000 (  1817 PWs)   bands (ev):

    -3.0210  -1.6895   2.2532   2.3405   6.2679   6.5829  12.5834  13.5202

          k =-1.0000-0.8500 0.1500 (  1813 PWs)   bands (ev):

    -3.3266  -1.3358   2.2825   2.4145   6.2508   6.7260  12.1849  13.2091

          k =-1.0000-0.8500 0.2000 (  1817 PWs)   bands (ev):

    -3.6191  -0.9767   2.3315   2.5097   6.2569   6.8952  11.7882  12.8122

          k =-1.0000-0.8500 0.2500 (  1819 PWs)   bands (ev):

    -3.8975  -0.6138   2.3999   2.6261   6.2853   7.0900  11.3972  12.3901

          k =-1.0000-0.8500 0.3000 (  1817 PWs)   bands (ev):

    -4.1612  -0.2487   2.4874   2.7635   6.3350   7.3091  11.0138  11.9606

          k =-1.0000-0.8500 0.3500 (  1822 PWs)   bands (ev):

    -4.4092   0.1171   2.5933   2.9217   6.4048   7.5495  10.6404  11.5303

          k =-1.0000-0.8500 0.4000 (  1830 PWs)   bands (ev):

    -4.6410   0.4822   2.7171   3.0999   6.4935   7.8055  10.2806  11.1023

          k =-1.0000-0.8500 0.4500 (  1837 PWs)   bands (ev):

    -4.8561   0.8454   2.8581   3.2969   6.5994   8.0650   9.9430  10.6786

          k =-1.0000-0.8500 0.5000 (  1834 PWs)   bands (ev):

    -5.0540   1.2057   3.0152   3.5109   6.7209   8.2985   9.6505  10.2607

          k =-1.0000-0.8500 0.5500 (  1831 PWs)   bands (ev):

    -5.2341   1.5626   3.1872   3.7390   6.8556   8.4348   9.4624   9.8505

          k =-1.0000-0.8500 0.6000 (  1841 PWs)   bands (ev):

    -5.3962   1.9154   3.3726   3.9768   7.0007   8.3802   9.4486   9.4500

          k =-1.0000-0.8500 0.6500 (  1846 PWs)   bands (ev):

    -5.5399   2.2640   3.5690   4.2176   7.1528   8.1764   9.0620   9.5211

          k =-1.0000-0.8500 0.7000 (  1842 PWs)   bands (ev):

    -5.6650   2.6081   3.7734   4.4509   7.3072   7.9275   8.6904   9.5128

          k =-1.0000-0.8500 0.7500 (  1840 PWs)   bands (ev):

    -5.7712   2.9470   3.9812   4.6600   7.4584   7.6927   8.3405   9.3542

          k =-1.0000-0.8500 0.8000 (  1848 PWs)   bands (ev):

    -5.8583   3.2792   4.1853   4.8203   7.5113   7.5978   8.0213   9.0856

          k =-1.0000-0.8500 0.8500 (  1845 PWs)   bands (ev):

    -5.9263   3.6014   4.3754   4.9012   7.4197   7.6829   7.7784   8.7667

          k =-1.0000-0.8500 0.9000 (  1845 PWs)   bands (ev):

    -5.9749   3.9066   4.5358   4.8820   7.4427   7.4999   7.8328   8.4365

          k =-1.0000-0.8500 0.9500 (  1841 PWs)   bands (ev):

    -6.0041   4.1752   4.6461   4.7765   7.3525   7.5745   7.8931   8.1236

          k =-1.0000-0.8500 1.0000 (  1840 PWs)   bands (ev):

    -6.0138   4.3178   4.6858   4.6858   7.2999   7.7250   7.9144   7.9144

     Writing output data file tmp/silicon.save/

     init_run     :      0.06s CPU      0.06s WALL (       1 calls)
     electrons    :      6.81s CPU      6.83s WALL (       1 calls)

     Called by init_run:
     wfcinit      :      0.00s CPU      0.00s WALL (       1 calls)
     potinit      :      0.01s CPU      0.02s WALL (       1 calls)
     hinit0       :      0.03s CPU      0.03s WALL (       1 calls)

     Called by electrons:
     c_bands      :      6.81s CPU      6.83s WALL (       1 calls)
     v_of_rho     :      0.01s CPU      0.02s WALL (       1 calls)

     Called by c_bands:
     init_us_2    :      0.01s CPU      0.01s WALL (      41 calls)
     cegterg      :      6.50s CPU      6.52s WALL (      80 calls)

     Called by *egterg:
     cdiaghg      :      0.07s CPU      0.07s WALL (    1181 calls)
     h_psi        :      5.22s CPU      5.24s WALL (    1261 calls)
     g_psi        :      0.06s CPU      0.06s WALL (    1140 calls)

     Called by h_psi:
     h_psi:calbec :      0.17s CPU      0.17s WALL (    1261 calls)
     vloc_psi     :      4.84s CPU      4.85s WALL (    1261 calls)
     add_vuspsi   :      0.19s CPU      0.19s WALL (    1261 calls)

     General routines
     calbec       :      0.17s CPU      0.17s WALL (    1261 calls)
     fft          :      0.01s CPU      0.01s WALL (      10 calls)
     fftw         :      4.25s CPU      4.26s WALL (   14986 calls)
     davcio       :      0.01s CPU      0.01s WALL (      82 calls)

     Parallel routines

     PWSCF        :      6.98s CPU      7.02s WALL


   This run was terminated on:  13:33: 8  12Apr2023            

=------------------------------------------------------------------------------=
   JOB DONE.
=------------------------------------------------------------------------------=
