
     Program PWSCF v.6.7MaX starts on 21Feb2023 at 11:23:26 

     This program is part of the open-source Quantum ESPRESSO suite
     for quantum simulation of materials; please cite
         "P. Giannozzi et al., J. Phys.:Condens. Matter 21 395502 (2009);
         "P. Giannozzi et al., J. Phys.:Condens. Matter 29 465901 (2017);
          URL http://www.quantum-espresso.org", 
     in publications or presentations arising from this work. More details at
     http://www.quantum-espresso.org/quote

     Parallel version (MPI), running on     1 processors

     MPI processes distributed on     1 nodes
     Reading input from si.bands.in

     Current dimensions of program PWSCF are:
     Max number of different atomic species (ntypx) = 10
     Max number of k-points (npk) =  40000
     Max angular momentum in pseudopotentials (lmaxx) =  3

     Atomic positions and unit cell read from directory:
     tmp/silicon.save/


     Subspace diagonalization in iterative solution of the eigenvalue problem:
     a serial algorithm will be used


     G-vector sticks info
     --------------------
     sticks:   dense  smooth     PW     G-vecs:    dense   smooth      PW
     Sum         283     283    109                 3143     3143     701



     bravais-lattice index     =            2
     lattice parameter (alat)  =      10.2000  a.u.
     unit-cell volume          =     265.3020 (a.u.)^3
     number of atoms/cell      =            2
     number of atomic types    =            1
     number of electrons       =         8.00
     number of Kohn-Sham states=            8
     kinetic-energy cutoff     =      20.0000  Ry
     charge density cutoff     =      80.0000  Ry
     Exchange-correlation=  SLA  PZ   NOGX NOGC
                           (   1   1   0   0   0   0   0)

     celldm(1)=  10.700000  celldm(2)=   0.000000  celldm(3)=   0.000000
     celldm(4)=   0.000000  celldm(5)=   0.000000  celldm(6)=   0.000000

     crystal axes: (cart. coord. in units of alat)
               a(1) = (  -0.500000   0.000000   0.500000 )  
               a(2) = (   0.000000   0.500000   0.500000 )  
               a(3) = (  -0.500000   0.500000   0.000000 )  

     reciprocal axes: (cart. coord. in units 2 pi/alat)
               b(1) = ( -1.000000 -1.000000  1.000000 )  
               b(2) = (  1.000000  1.000000  1.000000 )  
               b(3) = ( -1.000000  1.000000 -1.000000 )  


     PseudoPot. # 1 for Si read from file:
     pseudo/Si.pz-vbc.UPF
     MD5 check sum: 6dfa03ddd5817404712e03e4d12deb78
     Pseudo is Norm-conserving, Zval =  4.0
     Generated by new atomic code, or converted to UPF format
     Using radial grid of  431 points,  2 beta functions with: 
                l(1) =   0
                l(2) =   1

     atomic species   valence    mass     pseudopotential
        Si             4.00    28.08600     Si( 1.00)

     48 Sym. Ops., with inversion, found (24 have fractional translation)



   Cartesian axes

     site n.     atom                  positions (alat units)
         1           Si  tau(   1) = (   0.0000000   0.0000000   0.0000000  )
         2           Si  tau(   2) = (   0.2500000   0.2500000   0.2500000  )

     number of k points=    36
                       cart. coord. in units 2pi/alat
        k(    1) = (   0.5000000   0.5000000   0.5000000), wk =   0.0030030
        k(    2) = (   0.4000000   0.4000000   0.4000000), wk =   0.0060060
        k(    3) = (   0.3000000   0.3000000   0.3000000), wk =   0.0090090
        k(    4) = (   0.2000000   0.2000000   0.2000000), wk =   0.0120120
        k(    5) = (   0.1000000   0.1000000   0.1000000), wk =   0.0150150
        k(    6) = (   0.0000000   0.0000000   0.0000000), wk =   0.0180180
        k(    7) = (   0.0000000   0.0000000   0.1000000), wk =   0.0210210
        k(    8) = (   0.0000000   0.0000000   0.2000000), wk =   0.0240240
        k(    9) = (   0.0000000   0.0000000   0.3000000), wk =   0.0270270
        k(   10) = (   0.0000000   0.0000000   0.4000000), wk =   0.0300300
        k(   11) = (   0.0000000   0.0000000   0.5000000), wk =   0.0330330
        k(   12) = (   0.0000000   0.0000000   0.6000000), wk =   0.0360360
        k(   13) = (   0.0000000   0.0000000   0.7000000), wk =   0.0390390
        k(   14) = (   0.0000000   0.0000000   0.8000000), wk =   0.0420420
        k(   15) = (   0.0000000   0.0000000   0.9000000), wk =   0.0450450
        k(   16) = (   0.0000000   0.0000000   1.0000000), wk =   0.0480480
        k(   17) = (   0.0000000   0.1000000   1.0000000), wk =   0.0510511
        k(   18) = (   0.0000000   0.2000000   1.0000000), wk =   0.0540541
        k(   19) = (   0.0000000   0.3000000   1.0000000), wk =   0.0570571
        k(   20) = (   0.0000000   0.4000000   1.0000000), wk =   0.0600601
        k(   21) = (   0.0000000   0.5000000   1.0000000), wk =   0.0630631
        k(   22) = (   0.0000000   0.6000000   1.0000000), wk =   0.0660661
        k(   23) = (   0.0000000   0.7000000   1.0000000), wk =   0.0690691
        k(   24) = (   0.0000000   0.8000000   1.0000000), wk =   0.0720721
        k(   25) = (   0.0000000   0.9000000   1.0000000), wk =   0.0750751
        k(   26) = (   0.0000000   1.0000000   1.0000000), wk =   0.0780781
        k(   27) = (   0.0000000   0.9000000   0.9000000), wk =   0.0810811
        k(   28) = (   0.0000000   0.8000000   0.8000000), wk =   0.0840841
        k(   29) = (   0.0000000   0.7000000   0.7000000), wk =   0.0870871
        k(   30) = (   0.0000000   0.6000000   0.6000000), wk =   0.0900901
        k(   31) = (   0.0000000   0.5000000   0.5000000), wk =   0.0930931
        k(   32) = (   0.0000000   0.4000000   0.4000000), wk =   0.0960961
        k(   33) = (   0.0000000   0.3000000   0.3000000), wk =   0.0990991
        k(   34) = (   0.0000000   0.2000000   0.2000000), wk =   0.1021021
        k(   35) = (   0.0000000   0.1000000   0.1000000), wk =   0.1051051
        k(   36) = (   0.0000000   0.0000000   0.0000000), wk =   0.1081081

     Dense  grid:     3143 G-vectors     FFT dimensions: (  24,  24,  24)

     Estimated max dynamical RAM per process >       1.70 MB

     The potential is recalculated from file :
     tmp/silicon.save/charge-density

     Starting wfcs are    8 randomized atomic wfcs

     Band Structure Calculation
     Davidson diagonalization with overlap

     ethr =  1.25E-08,  avg # of iterations = 18.0

     total cpu time spent up to now is        1.0 secs

     End of band structure calculation

          k = 0.5000 0.5000 0.5000 (   392 PWs)   bands (ev):

    -3.3904  -0.8003   5.0616   5.0616   7.8389   9.6045   9.6045  13.8393

          k = 0.4000 0.4000 0.4000 (   407 PWs)   bands (ev):

    -3.8652  -0.0777   5.1332   5.1332   7.9158   9.6834   9.6834  13.9623

          k = 0.3000 0.3000 0.3000 (   401 PWs)   bands (ev):

    -4.6338   1.4314   5.3495   5.3495   8.1532   9.8132   9.8132  13.8646

          k = 0.2000 0.2000 0.2000 (   386 PWs)   bands (ev):

    -5.2610   3.2479   5.6920   5.6920   8.5165   9.6514   9.6514  12.3652

          k = 0.1000 0.1000 0.1000 (   396 PWs)   bands (ev):

    -5.6548   5.1337   6.0810   6.0810   8.8658   9.1351   9.1351  10.6462

          k = 0.0000 0.0000 0.0000 (   411 PWs)   bands (ev):

    -5.7887   6.2850   6.2850   6.2850   8.8346   8.8346   8.8346   9.7596

          k = 0.0000 0.0000 0.1000 (   403 PWs)   bands (ev):

    -5.7442   6.0131   6.1033   6.1033   8.7229   9.0726   9.0726  10.0212

          k = 0.0000 0.0000 0.2000 (   391 PWs)   bands (ev):

    -5.6099   5.3652   5.6908   5.6908   8.4354   9.6475   9.6475  10.5566

          k = 0.0000 0.0000 0.3000 (   399 PWs)   bands (ev):

    -5.3895   4.5571   5.2142   5.2142   8.0625  10.3858  10.3858  10.7245

          k = 0.0000 0.0000 0.4000 (   399 PWs)   bands (ev):

    -5.0814   3.6859   4.7545   4.7545   7.6824  10.1429  11.2086  11.2086

          k = 0.0000 0.0000 0.5000 (   415 PWs)   bands (ev):

    -4.6894   2.7874   4.3433   4.3433   7.3382   9.3539  12.0764  12.0764

          k = 0.0000 0.0000 0.6000 (   411 PWs)   bands (ev):

    -4.2131   1.8817   3.9966   3.9966   7.0612   8.6166  12.9781  12.9781

          k = 0.0000 0.0000 0.7000 (   403 PWs)   bands (ev):

    -3.6578   0.9795   3.7215   3.7215   6.8661   7.9949  13.8962  13.8962

          k = 0.0000 0.0000 0.8000 (   404 PWs)   bands (ev):

    -3.0288   0.0954   3.5218   3.5218   6.7660   7.4977  14.8376  14.8376

          k = 0.0000 0.0000 0.9000 (   392 PWs)   bands (ev):

    -2.3302  -0.7577   3.4016   3.4016   6.7749   7.1336  15.7786  15.7786

          k = 0.0000 0.0000 1.0000 (   388 PWs)   bands (ev):

    -1.5698  -1.5698   3.3613   3.3613   6.8945   6.8945  16.4346  16.4346

          k = 0.0000 0.1000 1.0000 (   402 PWs)   bands (ev):

    -1.5552  -1.5552   3.2284   3.2284   7.1351   7.1351  15.9796  15.9796

          k = 0.0000 0.2000 1.0000 (   404 PWs)   bands (ev):

    -1.5132  -1.5132   2.9281   2.9281   7.7697   7.7697  14.8087  14.8087

          k = 0.0000 0.3000 1.0000 (   402 PWs)   bands (ev):

    -1.4576  -1.4576   2.6143   2.6143   8.6496   8.6496  13.4983  13.4983

          k = 0.0000 0.4000 1.0000 (   400 PWs)   bands (ev):

    -1.4097  -1.4097   2.3885   2.3885   9.6692   9.6692  12.2198  12.2198

          k = 0.0000 0.5000 1.0000 (   396 PWs)   bands (ev):

    -1.3901  -1.3901   2.3071   2.3071  10.4993  10.4993  11.3058  11.3058

          k = 0.0000 0.6000 1.0000 (   400 PWs)   bands (ev):

    -1.4097  -1.4097   2.3885   2.3885   9.6692   9.6692  12.2198  12.2198

          k = 0.0000 0.7000 1.0000 (   402 PWs)   bands (ev):

    -1.4576  -1.4576   2.6143   2.6143   8.6496   8.6496  13.4983  13.4983

          k = 0.0000 0.8000 1.0000 (   404 PWs)   bands (ev):

    -1.5132  -1.5132   2.9281   2.9281   7.7697   7.7697  14.8087  14.8087

          k = 0.0000 0.9000 1.0000 (   402 PWs)   bands (ev):

    -1.5552  -1.5552   3.2284   3.2284   7.1351   7.1351  15.9796  15.9796

          k = 0.0000 1.0000 1.0000 (   388 PWs)   bands (ev):

    -1.5698  -1.5698   3.3613   3.3613   6.8945   6.8945  16.4346  16.4346

          k = 0.0000 0.9000 0.9000 (   406 PWs)   bands (ev):

    -1.6085  -1.4763   2.8540   3.4326   6.9750   7.6896  15.6894  15.9693

          k = 0.0000 0.8000 0.8000 (   405 PWs)   bands (ev):

    -1.7869  -1.1900   2.0903   3.6433   7.2199   9.3881  14.4252  14.9768

          k = 0.0000 0.7000 0.7000 (   403 PWs)   bands (ev):

    -2.2373  -0.7167   1.7316   3.9822   7.6146  11.3998  13.1837  13.7121

          k = 0.0000 0.6000 0.6000 (   403 PWs)   bands (ev):

    -2.9340  -0.0582   1.8877   4.4239   8.1294  12.0601  12.3092  13.1413

          k = 0.0000 0.5000 0.5000 (   407 PWs)   bands (ev):

    -3.7039   0.7806   2.4193   4.9250   8.6982  11.0888  11.3976  12.4229

          k = 0.0000 0.4000 0.4000 (   395 PWs)   bands (ev):

    -4.4139   1.7931   3.1944   5.4220   9.1787  10.2866  10.5796  12.0082

          k = 0.0000 0.3000 0.3000 (   391 PWs)   bands (ev):

    -5.0012   2.9624   4.1174   5.8344   9.3732   9.6555   9.9091  11.9287

          k = 0.0000 0.2000 0.2000 (   389 PWs)   bands (ev):

    -5.4344   4.2522   5.0859   6.1090   9.2017   9.2994   9.3830  11.5287

          k = 0.0000 0.1000 0.1000 (   399 PWs)   bands (ev):

    -5.6996   5.5482   5.9216   6.2456   8.9280   9.0009   9.0981  10.3521

          k = 0.0000 0.0000 0.0000 (   411 PWs)   bands (ev):

    -5.7887   6.2850   6.2850   6.2850   8.8346   8.8346   8.8346   9.7596

     Writing output data file tmp/silicon.save/

     init_run     :      0.02s CPU      0.02s WALL (       1 calls)
     electrons    :      0.89s CPU      0.90s WALL (       1 calls)

     Called by init_run:
     wfcinit      :      0.00s CPU      0.00s WALL (       1 calls)
     potinit      :      0.00s CPU      0.00s WALL (       1 calls)
     hinit0       :      0.01s CPU      0.01s WALL (       1 calls)

     Called by electrons:
     c_bands      :      0.89s CPU      0.90s WALL (       1 calls)
     v_of_rho     :      0.00s CPU      0.00s WALL (       1 calls)

     Called by c_bands:
     init_us_2    :      0.00s CPU      0.00s WALL (      36 calls)
     cegterg      :      0.83s CPU      0.83s WALL (      42 calls)

     Called by *egterg:
     cdiaghg      :      0.04s CPU      0.04s WALL (     685 calls)
     h_psi        :      0.67s CPU      0.68s WALL (     727 calls)
     g_psi        :      0.01s CPU      0.01s WALL (     649 calls)

     Called by h_psi:
     h_psi:calbec :      0.02s CPU      0.02s WALL (     727 calls)
     vloc_psi     :      0.63s CPU      0.64s WALL (     727 calls)
     add_vuspsi   :      0.02s CPU      0.02s WALL (     727 calls)

     General routines
     calbec       :      0.02s CPU      0.02s WALL (     727 calls)
     fft          :      0.00s CPU      0.00s WALL (       3 calls)
     fftw         :      0.54s CPU      0.55s WALL (    7898 calls)
     davcio       :      0.00s CPU      0.00s WALL (      72 calls)

     Parallel routines

     PWSCF        :      1.01s CPU      1.02s WALL


   This run was terminated on:  11:23:27  21Feb2023            

=------------------------------------------------------------------------------=
   JOB DONE.
=------------------------------------------------------------------------------=
