
     Program PWSCF v.6.7MaX starts on 31Mar2023 at 16:16: 3 

     This program is part of the open-source Quantum ESPRESSO suite
     for quantum simulation of materials; please cite
         "P. Giannozzi et al., J. Phys.:Condens. Matter 21 395502 (2009);
         "P. Giannozzi et al., J. Phys.:Condens. Matter 29 465901 (2017);
          URL http://www.quantum-espresso.org", 
     in publications or presentations arising from this work. More details at
     http://www.quantum-espresso.org/quote

     Parallel version (MPI), running on     1 processors

     MPI processes distributed on     1 nodes
     Reading input from si.bandspy.in

     Current dimensions of program PWSCF are:
     Max number of different atomic species (ntypx) = 10
     Max number of k-points (npk) =  40000
     Max angular momentum in pseudopotentials (lmaxx) =  3

     Subspace diagonalization in iterative solution of the eigenvalue problem:
     a serial algorithm will be used


     G-vector sticks info
     --------------------
     sticks:   dense  smooth     PW     G-vecs:    dense   smooth      PW
     Sum         313     313     91                 3719     3719     609



     bravais-lattice index     =            2
     lattice parameter (alat)  =      10.7000  a.u.
     unit-cell volume          =     306.2607 (a.u.)^3
     number of atoms/cell      =            2
     number of atomic types    =            1
     number of electrons       =         8.00
     number of Kohn-Sham states=            8
     kinetic-energy cutoff     =      20.0000  Ry
     charge density cutoff     =      80.0000  Ry
     scf convergence threshold =      1.0E-06
     mixing beta               =       0.6000
     number of iterations used =            8  plain     mixing
     Exchange-correlation=  SLA  PZ   NOGX NOGC
                           (   1   1   0   0   0   0   0)

     celldm(1)=  10.700000  celldm(2)=   0.000000  celldm(3)=   0.000000
     celldm(4)=   0.000000  celldm(5)=   0.000000  celldm(6)=   0.000000

     crystal axes: (cart. coord. in units of alat)
               a(1) = (  -0.500000   0.000000   0.500000 )  
               a(2) = (   0.000000   0.500000   0.500000 )  
               a(3) = (  -0.500000   0.500000   0.000000 )  

     reciprocal axes: (cart. coord. in units 2 pi/alat)
               b(1) = ( -1.000000 -1.000000  1.000000 )  
               b(2) = (  1.000000  1.000000  1.000000 )  
               b(3) = ( -1.000000  1.000000 -1.000000 )  


     PseudoPot. # 1 for Si read from file:
     pseudo/Si.pz-vbc.UPF
     MD5 check sum: 6dfa03ddd5817404712e03e4d12deb78
     Pseudo is Norm-conserving, Zval =  4.0
     Generated by new atomic code, or converted to UPF format
     Using radial grid of  431 points,  2 beta functions with: 
                l(1) =   0
                l(2) =   1

     atomic species   valence    mass     pseudopotential
        Si             4.00    28.08600     Si( 1.00)

     48 Sym. Ops., with inversion, found (24 have fractional translation)



   Cartesian axes

     site n.     atom                  positions (alat units)
         1           Si  tau(   1) = (   0.0000000   0.0000000   0.0000000  )
         2           Si  tau(   2) = (   0.2500000   0.2500000   0.2500000  )

     number of k points=    20
                       cart. coord. in units 2pi/alat
        k(    1) = (   0.0000000   0.0000000   0.0000000), wk =   0.0000000
        k(    2) = (   0.0263000   0.0263000   0.0263000), wk =   0.0105263
        k(    3) = (   0.0526000   0.0526000   0.0526000), wk =   0.0210526
        k(    4) = (   0.0789000   0.0789000   0.0789000), wk =   0.0315789
        k(    5) = (   0.1053000   0.1053000   0.1053000), wk =   0.0421053
        k(    6) = (   0.1316000   0.1316000   0.1316000), wk =   0.0526316
        k(    7) = (   0.1579000   0.1579000   0.1579000), wk =   0.0631579
        k(    8) = (   0.1842000   0.1842000   0.1842000), wk =   0.0736842
        k(    9) = (   0.2105000   0.2105000   0.2105000), wk =   0.0842105
        k(   10) = (   0.2368000   0.2368000   0.2368000), wk =   0.0947368
        k(   11) = (   0.2632000   0.2632000   0.2632000), wk =   0.1052632
        k(   12) = (   0.2895000   0.2895000   0.2895000), wk =   0.1157895
        k(   13) = (   0.3158000   0.3158000   0.3158000), wk =   0.1263158
        k(   14) = (   0.3421000   0.3421000   0.3421000), wk =   0.1368421
        k(   15) = (   0.3684000   0.3684000   0.3684000), wk =   0.1473684
        k(   16) = (   0.3947000   0.3947000   0.3947000), wk =   0.1578947
        k(   17) = (   0.4211000   0.4211000   0.4211000), wk =   0.1684211
        k(   18) = (   0.4474000   0.4474000   0.4474000), wk =   0.1789474
        k(   19) = (   0.4737000   0.4737000   0.4737000), wk =   0.1894737
        k(   20) = (   0.5000000   0.5000000   0.5000000), wk =   0.2000000

     Dense  grid:     3719 G-vectors     FFT dimensions: (  24,  24,  24)

     Estimated max dynamical RAM per process >       4.04 MB

     Initial potential from superposition of free atoms

     starting charge    7.99901, renormalised to    8.00000
     Starting wfcs are    8 randomized atomic wfcs

     total cpu time spent up to now is        0.1 secs

     Self-consistent Calculation

     iteration #  1     ecut=    20.00 Ry     beta= 0.60
     Davidson diagonalization with overlap
     ethr =  1.00E-02,  avg # of iterations =  2.9

     total cpu time spent up to now is        0.2 secs

     total energy              =     -15.45490105 Ry
     estimated scf accuracy    <       0.10085307 Ry

     iteration #  2     ecut=    20.00 Ry     beta= 0.60
     Davidson diagonalization with overlap
     ethr =  1.26E-03,  avg # of iterations =  1.2

     total cpu time spent up to now is        0.3 secs

     total energy              =     -15.45696209 Ry
     estimated scf accuracy    <       0.01004576 Ry

     iteration #  3     ecut=    20.00 Ry     beta= 0.60
     Davidson diagonalization with overlap
     ethr =  1.26E-04,  avg # of iterations =  2.1

     total cpu time spent up to now is        0.4 secs

     total energy              =     -15.45754925 Ry
     estimated scf accuracy    <       0.00015601 Ry

     iteration #  4     ecut=    20.00 Ry     beta= 0.60
     Davidson diagonalization with overlap
     ethr =  1.95E-06,  avg # of iterations =  4.3

     total cpu time spent up to now is        0.6 secs

     total energy              =     -15.45758943 Ry
     estimated scf accuracy    <       0.00000331 Ry

     iteration #  5     ecut=    20.00 Ry     beta= 0.60
     Davidson diagonalization with overlap
     ethr =  4.14E-08,  avg # of iterations =  2.4

     total cpu time spent up to now is        0.7 secs

     End of self-consistent calculation

          k = 0.0000 0.0000 0.0000 (   459 PWs)   bands (ev):

    -6.0442   5.1641   5.1641   5.1641   7.0827   7.5079   7.5079   7.5079

          k = 0.0263 0.0263 0.0263 (   459 PWs)   bands (ev):

    -6.0359   5.0396   5.1493   5.1493   7.1535   7.5290   7.5290   7.5449

          k = 0.0526 0.0526 0.0526 (   468 PWs)   bands (ev):

    -6.0118   4.7284   5.1067   5.1067   7.2264   7.5892   7.5892   7.7301

          k = 0.0789 0.0789 0.0789 (   477 PWs)   bands (ev):

    -5.9714   4.3253   5.0412   5.0412   7.2029   7.6815   7.6815   8.0783

          k = 0.1053 0.1053 0.1053 (   477 PWs)   bands (ev):

    -5.9135   3.8818   4.9596   4.9596   7.1328   7.7985   7.7985   8.4956

          k = 0.1316 0.1316 0.1316 (   471 PWs)   bands (ev):

    -5.8394   3.4215   4.8697   4.8697   7.0419   7.9285   7.9285   8.9353

          k = 0.1579 0.1579 0.1579 (   471 PWs)   bands (ev):

    -5.7504   2.9562   4.7739   4.7739   6.9409   8.0607   8.0607   9.3828

          k = 0.1842 0.1842 0.1842 (   483 PWs)   bands (ev):

    -5.6470   2.4912   4.6766   4.6766   6.8359   8.1818   8.1818   9.8310

          k = 0.2105 0.2105 0.2105 (   483 PWs)   bands (ev):

    -5.5279   2.0347   4.5824   4.5824   6.7315   8.2881   8.2881  10.2766

          k = 0.2368 0.2368 0.2368 (   477 PWs)   bands (ev):

    -5.3937   1.5883   4.4935   4.4935   6.6307   8.3699   8.3699  10.7166

          k = 0.2632 0.2632 0.2632 (   477 PWs)   bands (ev):

    -5.2466   1.1532   4.4095   4.4095   6.5354   8.4240   8.4240  11.1476

          k = 0.2895 0.2895 0.2895 (   471 PWs)   bands (ev):

    -5.0882   0.7354   4.3333   4.3333   6.4493   8.4512   8.4512  11.5554

          k = 0.3158 0.3158 0.3158 (   468 PWs)   bands (ev):

    -4.9196   0.3364   4.2649   4.2649   6.3709   8.4560   8.4560  11.9137

          k = 0.3421 0.3421 0.3421 (   468 PWs)   bands (ev):

    -4.7442  -0.0404   4.2048   4.2048   6.3013   8.4446   8.4446  12.1641

          k = 0.3684 0.3684 0.3684 (   465 PWs)   bands (ev):

    -4.5654  -0.3904   4.1535   4.1535   6.2406   8.4238   8.4238  12.2676

          k = 0.3947 0.3947 0.3947 (   468 PWs)   bands (ev):

    -4.3901  -0.7072   4.1113   4.1113   6.1894   8.3991   8.3991  12.2754

          k = 0.4211 0.4211 0.4211 (   470 PWs)   bands (ev):

    -4.2269  -0.9808   4.0780   4.0780   6.1505   8.3748   8.3748  12.2520

          k = 0.4474 0.4474 0.4474 (   470 PWs)   bands (ev):

    -4.0902  -1.1962   4.0545   4.0545   6.1228   8.3555   8.3555  12.2248

          k = 0.4737 0.4737 0.4737 (   464 PWs)   bands (ev):

    -3.9964  -1.3365   4.0407   4.0407   6.1063   8.3439   8.3439  12.2054

          k = 0.5000 0.5000 0.5000 (   464 PWs)   bands (ev):

    -3.9629  -1.3858   4.0359   4.0359   6.1008   8.3396   8.3396  12.1985

     highest occupied, lowest unoccupied level (ev):     5.1493    6.1008

!    total energy              =     -15.45759023 Ry
     estimated scf accuracy    <       0.00000012 Ry

     The total energy is the sum of the following terms:
     one-electron contribution =       4.00588782 Ry
     hartree contribution      =       1.38842208 Ry
     xc contribution           =      -4.74184990 Ry
     ewald contribution        =     -16.11005023 Ry

     convergence has been achieved in   5 iterations

     Writing output data file tmp/silicon.save/

     init_run     :      0.06s CPU      0.06s WALL (       1 calls)
     electrons    :      0.66s CPU      0.67s WALL (       1 calls)

     Called by init_run:
     wfcinit      :      0.04s CPU      0.04s WALL (       1 calls)
     potinit      :      0.00s CPU      0.00s WALL (       1 calls)
     hinit0       :      0.02s CPU      0.02s WALL (       1 calls)

     Called by electrons:
     c_bands      :      0.57s CPU      0.58s WALL (       5 calls)
     sum_band     :      0.08s CPU      0.08s WALL (       5 calls)
     v_of_rho     :      0.00s CPU      0.00s WALL (       6 calls)
     mix_rho      :      0.00s CPU      0.00s WALL (       5 calls)

     Called by c_bands:
     init_us_2    :      0.01s CPU      0.01s WALL (     220 calls)
     cegterg      :      0.56s CPU      0.57s WALL (     100 calls)

     Called by *egterg:
     cdiaghg      :      0.02s CPU      0.02s WALL (     359 calls)
     h_psi        :      0.47s CPU      0.48s WALL (     379 calls)
     g_psi        :      0.00s CPU      0.00s WALL (     259 calls)

     Called by h_psi:
     h_psi:calbec :      0.01s CPU      0.01s WALL (     379 calls)
     vloc_psi     :      0.44s CPU      0.44s WALL (     379 calls)
     add_vuspsi   :      0.02s CPU      0.02s WALL (     379 calls)

     General routines
     calbec       :      0.01s CPU      0.01s WALL (     379 calls)
     fft          :      0.01s CPU      0.01s WALL (      17 calls)
     ffts         :      0.00s CPU      0.00s WALL (       5 calls)
     fftw         :      0.42s CPU      0.42s WALL (    5484 calls)

     Parallel routines

     PWSCF        :      0.74s CPU      0.76s WALL


   This run was terminated on:  16:16: 4  31Mar2023            

=------------------------------------------------------------------------------=
   JOB DONE.
=------------------------------------------------------------------------------=
