
     Program PWSCF v.6.7MaX starts on 11Apr2023 at 16:24:21 

     This program is part of the open-source Quantum ESPRESSO suite
     for quantum simulation of materials; please cite
         "P. Giannozzi et al., J. Phys.:Condens. Matter 21 395502 (2009);
         "P. Giannozzi et al., J. Phys.:Condens. Matter 29 465901 (2017);
          URL http://www.quantum-espresso.org", 
     in publications or presentations arising from this work. More details at
     http://www.quantum-espresso.org/quote

     Parallel version (MPI), running on     1 processors

     MPI processes distributed on     1 nodes
     Reading input from si.bandspy.in

     Current dimensions of program PWSCF are:
     Max number of different atomic species (ntypx) = 10
     Max number of k-points (npk) =  40000
     Max angular momentum in pseudopotentials (lmaxx) =  3

     Atomic positions and unit cell read from directory:
     tmp/silicon.save/


     Subspace diagonalization in iterative solution of the eigenvalue problem:
     a serial algorithm will be used


     G-vector sticks info
     --------------------
     sticks:   dense  smooth     PW     G-vecs:    dense   smooth      PW
     Sum         793     793    253                14649    14649    2685



     bravais-lattice index     =            2
     lattice parameter (alat)  =      10.7000  a.u.
     unit-cell volume          =     306.2607 (a.u.)^3
     number of atoms/cell      =            2
     number of atomic types    =            1
     number of electrons       =         8.00
     number of Kohn-Sham states=            8
     kinetic-energy cutoff     =      50.0000  Ry
     charge density cutoff     =     200.0000  Ry
     Exchange-correlation=  SLA  PW   PBE  PBE
                           (   1   4   3   4   0   0   0)

     celldm(1)=  10.700000  celldm(2)=   0.000000  celldm(3)=   0.000000
     celldm(4)=   0.000000  celldm(5)=   0.000000  celldm(6)=   0.000000

     crystal axes: (cart. coord. in units of alat)
               a(1) = (  -0.500000   0.000000   0.500000 )  
               a(2) = (   0.000000   0.500000   0.500000 )  
               a(3) = (  -0.500000   0.500000   0.000000 )  

     reciprocal axes: (cart. coord. in units 2 pi/alat)
               b(1) = ( -1.000000 -1.000000  1.000000 )  
               b(2) = (  1.000000  1.000000  1.000000 )  
               b(3) = ( -1.000000  1.000000 -1.000000 )  


     PseudoPot. # 1 for Si read from file:
     pseudo/Si.pbe-rrkj.UPF
     MD5 check sum: cf7ab5690cd9a85b22c4813f7e365554
     Pseudo is Norm-conserving, Zval =  4.0
     Generated by new atomic code, or converted to UPF format
     Using radial grid of  883 points,  3 beta functions with: 
                l(1) =   0
                l(2) =   0
                l(3) =   1

     atomic species   valence    mass     pseudopotential
        Si             4.00    28.08550     Si( 1.00)

     48 Sym. Ops., with inversion, found (24 have fractional translation)



   Cartesian axes

     site n.     atom                  positions (alat units)
         1           Si  tau(   1) = (   0.0000000   0.0000000   0.0000000  )
         2           Si  tau(   2) = (   0.2500000   0.2500000   0.2500000  )

     number of k points=    41
                       cart. coord. in units 2pi/alat
        k(    1) = (  -1.0000000  -0.6000000  -1.0000000), wk =   0.0000000
        k(    2) = (  -1.0000000  -0.6000000  -0.9500000), wk =   0.0024390
        k(    3) = (  -1.0000000  -0.6000000  -0.9000000), wk =   0.0048780
        k(    4) = (  -1.0000000  -0.6000000  -0.8500000), wk =   0.0073171
        k(    5) = (  -1.0000000  -0.6000000  -0.8000000), wk =   0.0097561
        k(    6) = (  -1.0000000  -0.6000000  -0.7500000), wk =   0.0121951
        k(    7) = (  -1.0000000  -0.6000000  -0.7000000), wk =   0.0146341
        k(    8) = (  -1.0000000  -0.6000000  -0.6500000), wk =   0.0170732
        k(    9) = (  -1.0000000  -0.6000000  -0.6000000), wk =   0.0195122
        k(   10) = (  -1.0000000  -0.6000000  -0.5500000), wk =   0.0219512
        k(   11) = (  -1.0000000  -0.6000000  -0.5000000), wk =   0.0243902
        k(   12) = (  -1.0000000  -0.6000000  -0.4500000), wk =   0.0268293
        k(   13) = (  -1.0000000  -0.6000000  -0.4000000), wk =   0.0292683
        k(   14) = (  -1.0000000  -0.6000000  -0.3500000), wk =   0.0317073
        k(   15) = (  -1.0000000  -0.6000000  -0.3000000), wk =   0.0341463
        k(   16) = (  -1.0000000  -0.6000000  -0.2500000), wk =   0.0365854
        k(   17) = (  -1.0000000  -0.6000000  -0.2000000), wk =   0.0390244
        k(   18) = (  -1.0000000  -0.6000000  -0.1500000), wk =   0.0414634
        k(   19) = (  -1.0000000  -0.6000000  -0.1000000), wk =   0.0439024
        k(   20) = (  -1.0000000  -0.6000000  -0.0500000), wk =   0.0463415
        k(   21) = (  -1.0000000  -0.6000000   0.0000000), wk =   0.0487805
        k(   22) = (  -1.0000000  -0.6000000   0.0500000), wk =   0.0512195
        k(   23) = (  -1.0000000  -0.6000000   0.1000000), wk =   0.0536585
        k(   24) = (  -1.0000000  -0.6000000   0.1500000), wk =   0.0560976
        k(   25) = (  -1.0000000  -0.6000000   0.2000000), wk =   0.0585366
        k(   26) = (  -1.0000000  -0.6000000   0.2500000), wk =   0.0609756
        k(   27) = (  -1.0000000  -0.6000000   0.3000000), wk =   0.0634146
        k(   28) = (  -1.0000000  -0.6000000   0.3500000), wk =   0.0658537
        k(   29) = (  -1.0000000  -0.6000000   0.4000000), wk =   0.0682927
        k(   30) = (  -1.0000000  -0.6000000   0.4500000), wk =   0.0707317
        k(   31) = (  -1.0000000  -0.6000000   0.5000000), wk =   0.0731707
        k(   32) = (  -1.0000000  -0.6000000   0.5500000), wk =   0.0756098
        k(   33) = (  -1.0000000  -0.6000000   0.6000000), wk =   0.0780488
        k(   34) = (  -1.0000000  -0.6000000   0.6500000), wk =   0.0804878
        k(   35) = (  -1.0000000  -0.6000000   0.7000000), wk =   0.0829268
        k(   36) = (  -1.0000000  -0.6000000   0.7500000), wk =   0.0853659
        k(   37) = (  -1.0000000  -0.6000000   0.8000000), wk =   0.0878049
        k(   38) = (  -1.0000000  -0.6000000   0.8500000), wk =   0.0902439
        k(   39) = (  -1.0000000  -0.6000000   0.9000000), wk =   0.0926829
        k(   40) = (  -1.0000000  -0.6000000   0.9500000), wk =   0.0951220
        k(   41) = (  -1.0000000  -0.6000000   1.0000000), wk =   0.0975610

     Dense  grid:    14649 G-vectors     FFT dimensions: (  36,  36,  36)

     Estimated max dynamical RAM per process >       6.74 MB

     The potential is recalculated from file :
     tmp/silicon.save/charge-density

     Starting wfcs are    8 randomized atomic wfcs

     Band Structure Calculation
