
     Program BANDS v.6.7MaX starts on 31Mar2023 at 16:16: 3 

     This program is part of the open-source Quantum ESPRESSO suite
     for quantum simulation of materials; please cite
         "P. Giannozzi et al., J. Phys.:Condens. Matter 21 395502 (2009);
         "P. Giannozzi et al., J. Phys.:Condens. Matter 29 465901 (2017);
          URL http://www.quantum-espresso.org", 
     in publications or presentations arising from this work. More details at
     http://www.quantum-espresso.org/quote

     Parallel version (MPI), running on     1 processors

     MPI processes distributed on     1 nodes

     Reading xml data from directory:

     tmp/silicon.save/

     IMPORTANT: XC functional enforced from input :
     Exchange-correlation= PZ
                           (   1   1   0   0   0   0   0)
     Any further DFT definition will be discarded
     Please, verify this is what you really want


     G-vector sticks info
     --------------------
     sticks:   dense  smooth     PW     G-vecs:    dense   smooth      PW
     Sum         313     313     91                 3719     3719     609

     Reading collected, re-writing distributed wavefunctions
     high-symmetry point:  0.0000 0.0000 0.0000   x coordinate   0.0000
     high-symmetry point:  0.5000 0.5000 0.5000   x coordinate   0.8660

     Plottable bands (eV) written to file si_bands.dat.gnu
     Bands written to file si_bands.dat

 **************************************************************************

                    xk=(   0.00000,   0.00000,   0.00000  )

     point group O_h (m-3m) 
     there are 10 classes
     the character table:

       E     8C3   3C2   6C4   6C2'  i     8S6   3s_h  6S4   6s_d 
A_1g   1.00  1.00  1.00  1.00  1.00  1.00  1.00  1.00  1.00  1.00
A_2g   1.00  1.00  1.00 -1.00 -1.00  1.00  1.00  1.00 -1.00 -1.00
E_g    2.00 -1.00  2.00  0.00  0.00  2.00 -1.00  2.00  0.00  0.00
T_1g   3.00  0.00 -1.00  1.00 -1.00  3.00  0.00 -1.00  1.00 -1.00
T_2g   3.00  0.00 -1.00 -1.00  1.00  3.00  0.00 -1.00 -1.00  1.00
A_1u   1.00  1.00  1.00  1.00  1.00 -1.00 -1.00 -1.00 -1.00 -1.00
A_2u   1.00  1.00  1.00 -1.00 -1.00 -1.00 -1.00 -1.00  1.00  1.00
E_u    2.00 -1.00  2.00  0.00  0.00 -2.00  1.00 -2.00  0.00  0.00
T_1u   3.00  0.00 -1.00  1.00 -1.00 -3.00  0.00  1.00 -1.00  1.00
T_2u   3.00  0.00 -1.00 -1.00  1.00 -3.00  0.00  1.00  1.00 -1.00

     the symmetry operations in each class and the name of the first element:

     E        1
                                                                 
     8C3     17   19   20   18   24   21   22   23
                                                                 
     3C2      2    4    3
                                                                 
     6C4      7    8   15   16   12   11
                                                                 
     6C2'     5    6   14   13   10    9
                                                                 
     i       25
                                                                 
     8S6     41   43   44   42   48   45   46   47
                                                                 
     3s_h    26   28   27
                                                                 
     6S4     31   32   39   40   36   35
                                                                 
     6s_d    29   30   38   37   34   33
                                                                 

     Band symmetry, O_h (m-3m)  point group:

     e(  1 -  1) =     -6.04418  eV     1   --> A_1g G_1   G_1+
     e(  2 -  4) =      5.16408  eV     3   --> T_2g G_25' G_5+
     e(  5 -  5) =      7.08273  eV     1   --> A_2u G_2'  G_2-
     e(  6 -  8) =      7.50794  eV     3   --> T_1u G_15  G_4-

 **************************************************************************

 **************************************************************************

                    xk=(   0.02630,   0.02630,   0.02630  )

     point group C_3v (3m)  
     there are  3 classes
     the character table:

       E     2C3   3s_v 
A_1    1.00  1.00  1.00
A_2    1.00  1.00 -1.00
E      2.00 -1.00  0.00

     the symmetry operations in each class and the name of the first element:

     E        1
                                                                 
     2C3      2    3
                                                                 
     3s_v     4    5    6
                                                                 

     Band symmetry, C_3v (3m)   point group:

     e(  1 -  1) =     -6.03595  eV     1   --> A_1  L_1       
     e(  2 -  2) =      5.03964  eV     1   --> A_1  L_1       
     e(  3 -  4) =      5.14931  eV     2   --> E    L_3       
     e(  5 -  5) =      7.15345  eV     1   --> A_1  L_1       
     e(  6 -  7) =      7.52905  eV     2   --> E    L_3       
     e(  8 -  8) =      7.54491  eV     1   --> A_1  L_1       

 **************************************************************************

 **************************************************************************

                    xk=(   0.05260,   0.05260,   0.05260  )

     Band symmetry, C_3v (3m)   point group:

     e(  1 -  1) =     -6.01183  eV     1   --> A_1  L_1       
     e(  2 -  2) =      4.72835  eV     1   --> A_1  L_1       
     e(  3 -  4) =      5.10667  eV     2   --> E    L_3       
     e(  5 -  5) =      7.22636  eV     1   --> A_1  L_1       
     e(  6 -  7) =      7.58924  eV     2   --> E    L_3       
     e(  8 -  8) =      7.73013  eV     1   --> A_1  L_1       

 **************************************************************************

 **************************************************************************

                    xk=(   0.07890,   0.07890,   0.07890  )

     Band symmetry, C_3v (3m)   point group:

     e(  1 -  1) =     -5.97139  eV     1   --> A_1  L_1       
     e(  2 -  2) =      4.32526  eV     1   --> A_1  L_1       
     e(  3 -  4) =      5.04116  eV     2   --> E    L_3       
     e(  5 -  5) =      7.20290  eV     1   --> A_1  L_1       
     e(  6 -  7) =      7.68148  eV     2   --> E    L_3       
     e(  8 -  8) =      8.07826  eV     1   --> A_1  L_1       

 **************************************************************************

 **************************************************************************

                    xk=(   0.10530,   0.10530,   0.10530  )

     Band symmetry, C_3v (3m)   point group:

     e(  1 -  1) =     -5.91345  eV     1   --> A_1  L_1       
     e(  2 -  2) =      3.88184  eV     1   --> A_1  L_1       
     e(  3 -  4) =      4.95962  eV     2   --> E    L_3       
     e(  5 -  5) =      7.13284  eV     1   --> A_1  L_1       
     e(  6 -  7) =      7.79852  eV     2   --> E    L_3       
     e(  8 -  8) =      8.49565  eV     1   --> A_1  L_1       

 **************************************************************************

 **************************************************************************

                    xk=(   0.13160,   0.13160,   0.13160  )

     Band symmetry, C_3v (3m)   point group:

     e(  1 -  1) =     -5.83937  eV     1   --> A_1  L_1       
     e(  2 -  2) =      3.42152  eV     1   --> A_1  L_1       
     e(  3 -  4) =      4.86974  eV     2   --> E    L_3       
     e(  5 -  5) =      7.04194  eV     1   --> A_1  L_1       
     e(  6 -  7) =      7.92854  eV     2   --> E    L_3       
     e(  8 -  8) =      8.93529  eV     1   --> A_1  L_1       

 **************************************************************************

 **************************************************************************

                    xk=(   0.15790,   0.15790,   0.15790  )

     Band symmetry, C_3v (3m)   point group:

     e(  1 -  1) =     -5.75040  eV     1   --> A_1  L_1       
     e(  2 -  2) =      2.95623  eV     1   --> A_1  L_1       
     e(  3 -  4) =      4.77394  eV     2   --> E    L_3       
     e(  5 -  5) =      6.94086  eV     1   --> A_1  L_1       
     e(  6 -  7) =      8.06070  eV     2   --> E    L_3       
     e(  8 -  8) =      9.38278  eV     1   --> A_1  L_1       

 **************************************************************************

 **************************************************************************

                    xk=(   0.18420,   0.18420,   0.18420  )

     Band symmetry, C_3v (3m)   point group:

     e(  1 -  1) =     -5.64700  eV     1   --> A_1  L_1       
     e(  2 -  2) =      2.49120  eV     1   --> A_1  L_1       
     e(  3 -  4) =      4.67658  eV     2   --> E    L_3       
     e(  5 -  5) =      6.83586  eV     1   --> A_1  L_1       
     e(  6 -  7) =      8.18177  eV     2   --> E    L_3       
     e(  8 -  8) =      9.83100  eV     1   --> A_1  L_1       

 **************************************************************************

 **************************************************************************

                    xk=(   0.21050,   0.21050,   0.21050  )

     Band symmetry, C_3v (3m)   point group:

     e(  1 -  1) =     -5.52785  eV     1   --> A_1  L_1       
     e(  2 -  2) =      2.03470  eV     1   --> A_1  L_1       
     e(  3 -  4) =      4.58241  eV     2   --> E    L_3       
     e(  5 -  5) =      6.73149  eV     1   --> A_1  L_1       
     e(  6 -  7) =      8.28806  eV     2   --> E    L_3       
     e(  8 -  8) =     10.27662  eV     1   --> A_1  L_1       

 **************************************************************************

 **************************************************************************

                    xk=(   0.23680,   0.23680,   0.23680  )

     Band symmetry, C_3v (3m)   point group:

     e(  1 -  1) =     -5.39365  eV     1   --> A_1  L_1       
     e(  2 -  2) =      1.58831  eV     1   --> A_1  L_1       
     e(  3 -  4) =      4.49352  eV     2   --> E    L_3       
     e(  5 -  5) =      6.63074  eV     1   --> A_1  L_1       
     e(  6 -  7) =      8.36988  eV     2   --> E    L_3       
     e(  8 -  8) =     10.71663  eV     1   --> A_1  L_1       

 **************************************************************************

 **************************************************************************

                    xk=(   0.26320,   0.26320,   0.26320  )

     Band symmetry, C_3v (3m)   point group:

     e(  1 -  1) =     -5.24660  eV     1   --> A_1  L_1       
     e(  2 -  2) =      1.15317  eV     1   --> A_1  L_1       
     e(  3 -  4) =      4.40950  eV     2   --> E    L_3       
     e(  5 -  5) =      6.53541  eV     1   --> A_1  L_1       
     e(  6 -  7) =      8.42401  eV     2   --> E    L_3       
     e(  8 -  8) =     11.14756  eV     1   --> A_1  L_1       

 **************************************************************************

 **************************************************************************

                    xk=(   0.28950,   0.28950,   0.28950  )

     Band symmetry, C_3v (3m)   point group:

     e(  1 -  1) =     -5.08822  eV     1   --> A_1  L_1       
     e(  2 -  2) =      0.73539  eV     1   --> A_1  L_1       
     e(  3 -  4) =      4.33334  eV     2   --> E    L_3       
     e(  5 -  5) =      6.44928  eV     1   --> A_1  L_1       
     e(  6 -  7) =      8.45125  eV     2   --> E    L_3       
     e(  8 -  8) =     11.55539  eV     1   --> A_1  L_1       

 **************************************************************************

 **************************************************************************

                    xk=(   0.31580,   0.31580,   0.31580  )

     Band symmetry, C_3v (3m)   point group:

     e(  1 -  1) =     -4.91965  eV     1   --> A_1  L_1       
     e(  2 -  2) =      0.33645  eV     1   --> A_1  L_1       
     e(  3 -  4) =      4.26494  eV     2   --> E    L_3       
     e(  5 -  5) =      6.37092  eV     1   --> A_1  L_1       
     e(  6 -  7) =      8.45599  eV     2   --> E    L_3       
     e(  8 -  8) =     11.91375  eV     1   --> A_1  L_1       

 **************************************************************************

 **************************************************************************

                    xk=(   0.34210,   0.34210,   0.34210  )

     Band symmetry, C_3v (3m)   point group:

     e(  1 -  1) =     -4.74421  eV     1   --> A_1  L_1       
     e(  2 -  2) =     -0.04043  eV     1   --> A_1  L_1       
     e(  3 -  4) =      4.20478  eV     2   --> E    L_3       
     e(  5 -  5) =      6.30132  eV     1   --> A_1  L_1       
     e(  6 -  7) =      8.44463  eV     2   --> E    L_3       
     e(  8 -  8) =     12.16414  eV     1   --> A_1  L_1       

 **************************************************************************

 **************************************************************************

                    xk=(   0.36840,   0.36840,   0.36840  )

     Band symmetry, C_3v (3m)   point group:

     e(  1 -  1) =     -4.56538  eV     1   --> A_1  L_1       
     e(  2 -  2) =     -0.39036  eV     1   --> A_1  L_1       
     e(  3 -  4) =      4.15349  eV     2   --> E    L_3       
     e(  5 -  5) =      6.24059  eV     1   --> A_1  L_1       
     e(  6 -  7) =      8.42378  eV     2   --> E    L_3       
     e(  8 -  8) =     12.26755  eV     1   --> A_1  L_1       

 **************************************************************************

 **************************************************************************

                    xk=(   0.39470,   0.39470,   0.39470  )

     Band symmetry, C_3v (3m)   point group:

     e(  1 -  1) =     -4.39006  eV     1   --> A_1  L_1       
     e(  2 -  2) =     -0.70717  eV     1   --> A_1  L_1       
     e(  3 -  4) =      4.11127  eV     2   --> E    L_3       
     e(  5 -  5) =      6.18941  eV     1   --> A_1  L_1       
     e(  6 -  7) =      8.39910  eV     2   --> E    L_3       
     e(  8 -  8) =     12.27541  eV     1   --> A_1  L_1       

 **************************************************************************

 **************************************************************************

                    xk=(   0.42110,   0.42110,   0.42110  )

     Band symmetry, C_3v (3m)   point group:

     e(  1 -  1) =     -4.22688  eV     1   --> A_1  L_1       
     e(  2 -  2) =     -0.98083  eV     1   --> A_1  L_1       
     e(  3 -  4) =      4.07804  eV     2   --> E    L_3       
     e(  5 -  5) =      6.15051  eV     1   --> A_1  L_1       
     e(  6 -  7) =      8.37478  eV     2   --> E    L_3       
     e(  8 -  8) =     12.25204  eV     1   --> A_1  L_1       

 **************************************************************************

 **************************************************************************

                    xk=(   0.44740,   0.44740,   0.44740  )

     Band symmetry, C_3v (3m)   point group:

     e(  1 -  1) =     -4.09017  eV     1   --> A_1  L_1       
     e(  2 -  2) =     -1.19624  eV     1   --> A_1  L_1       
     e(  3 -  4) =      4.05449  eV     2   --> E    L_3       
     e(  5 -  5) =      6.12279  eV     1   --> A_1  L_1       
     e(  6 -  7) =      8.35550  eV     2   --> E    L_3       
     e(  8 -  8) =     12.22475  eV     1   --> A_1  L_1       

 **************************************************************************

 **************************************************************************

                    xk=(   0.47370,   0.47370,   0.47370  )

     Band symmetry, C_3v (3m)   point group:

     e(  1 -  1) =     -3.99642  eV     1   --> A_1  L_1       
     e(  2 -  2) =     -1.33651  eV     1   --> A_1  L_1       
     e(  3 -  4) =      4.04065  eV     2   --> E    L_3       
     e(  5 -  5) =      6.10632  eV     1   --> A_1  L_1       
     e(  6 -  7) =      8.34392  eV     2   --> E    L_3       
     e(  8 -  8) =     12.20536  eV     1   --> A_1  L_1       

 **************************************************************************

 **************************************************************************

                    xk=(   0.50000,   0.50000,   0.50000  )

     zone border point and non-symmorphic group 
     symmetry decomposition not available

 **************************************************************************

     BANDS        :      0.28s CPU      0.30s WALL


   This run was terminated on:  16:16: 3  31Mar2023            

=------------------------------------------------------------------------------=
   JOB DONE.
=------------------------------------------------------------------------------=
