
     Program BANDS v.6.7MaX starts on  9Apr2023 at 11:51:17 

     This program is part of the open-source Quantum ESPRESSO suite
     for quantum simulation of materials; please cite
         "P. Giannozzi et al., J. Phys.:Condens. Matter 21 395502 (2009);
         "P. Giannozzi et al., J. Phys.:Condens. Matter 29 465901 (2017);
          URL http://www.quantum-espresso.org", 
     in publications or presentations arising from this work. More details at
     http://www.quantum-espresso.org/quote

     Parallel version (MPI), running on     1 processors

     MPI processes distributed on     1 nodes

     Reading xml data from directory:

     tmp/silicon.save/

     IMPORTANT: XC functional enforced from input :
     Exchange-correlation= PBE
                           (   1   4   3   4   0   0   0)
     Any further DFT definition will be discarded
     Please, verify this is what you really want


     G-vector sticks info
     --------------------
     sticks:   dense  smooth     PW     G-vecs:    dense   smooth      PW
     Sum         793     793    235                14649    14649    2277

     Reading collected, re-writing distributed wavefunctions
     high-symmetry point: -1.0000 0.0000 0.0000   x coordinate   0.0000
     high-symmetry point:  1.0000 0.0000 0.0000   x coordinate   2.0000

     Plottable bands (eV) written to file si_bands.dat.gnu
     Bands written to file si_bands.dat

 **************************************************************************

                    xk=(  -1.00000,   0.00000,   0.00000  )

     zone border point and non-symmorphic group 
     symmetry decomposition not available

 **************************************************************************

 **************************************************************************

                    xk=(  -0.89470,   0.00000,   0.00000  )

     point group C_4v (4mm) 
     there are  5 classes
     the character table:

       E     2C4   C2    2s_v  2s_d 
A_1    1.00  1.00  1.00  1.00  1.00
A_2    1.00  1.00  1.00 -1.00 -1.00
B_1    1.00 -1.00  1.00  1.00 -1.00
B_2    1.00 -1.00  1.00 -1.00  1.00
E      2.00  0.00 -2.00  0.00  0.00

     the symmetry operations in each class and the name of the first element:

     E        1
                                                                 
     2C4      3    4
                                                                 
     C2       2
                                                                 
     2s_v     5    6
                                                                 
     2s_d     7    8
                                                                 

     Band symmetry, C_4v (4mm)  point group:

     e(  1 -  1) =     -2.79381  eV     1   --> A_1  G_1 D_1   
     e(  2 -  2) =     -1.33151  eV     1   --> B_2  G_4 D_2'  
     e(  3 -  4) =      2.77092  eV     2   --> E    G_5 D_5   
     e(  5 -  5) =      6.03891  eV     1   --> A_1  G_1 D_1   
     e(  6 -  6) =      6.41132  eV     1   --> B_2  G_4 D_2'  
     e(  7 -  8) =     13.86762  eV     2   --> E    G_5 D_5   

 **************************************************************************

 **************************************************************************

                    xk=(  -0.78950,   0.00000,   0.00000  )

     Band symmetry, C_4v (4mm)  point group:

     e(  1 -  1) =     -3.43710  eV     1   --> A_1  G_1 D_1   
     e(  2 -  2) =     -0.53142  eV     1   --> B_2  G_4 D_2'  
     e(  3 -  4) =      2.89058  eV     2   --> E    G_5 D_5   
     e(  5 -  5) =      6.02272  eV     1   --> A_1  G_1 D_1   
     e(  6 -  6) =      6.77669  eV     1   --> B_2  G_4 D_2'  
     e(  7 -  8) =     13.02327  eV     2   --> E    G_5 D_5   

 **************************************************************************

 **************************************************************************

                    xk=(  -0.68420,   0.00000,   0.00000  )

     Band symmetry, C_4v (4mm)  point group:

     e(  1 -  1) =     -4.01321  eV     1   --> A_1  G_1 D_1   
     e(  2 -  2) =      0.30284  eV     1   --> B_2  G_4 D_2'  
     e(  3 -  4) =      3.08836  eV     2   --> E    G_5 D_5   
     e(  5 -  5) =      6.10966  eV     1   --> A_1  G_1 D_1   
     e(  6 -  6) =      7.26048  eV     1   --> B_2  G_4 D_2'  
     e(  7 -  8) =     12.13726  eV     2   --> E    G_5 D_5   

 **************************************************************************

 **************************************************************************

                    xk=(  -0.57890,   0.00000,   0.00000  )

     Band symmetry, C_4v (4mm)  point group:

     e(  1 -  1) =     -4.51588  eV     1   --> A_1  G_1 D_1   
     e(  2 -  2) =      1.16077  eV     1   --> B_2  G_4 D_2'  
     e(  3 -  4) =      3.36100  eV     2   --> E    G_5 D_5   
     e(  5 -  5) =      6.28935  eV     1   --> A_1  G_1 D_1   
     e(  6 -  6) =      7.84507  eV     1   --> B_2  G_4 D_2'  
     e(  7 -  8) =     11.25987  eV     2   --> E    G_5 D_5   

 **************************************************************************

 **************************************************************************

                    xk=(  -0.47370,   0.00000,   0.00000  )

     Band symmetry, C_4v (4mm)  point group:

     e(  1 -  1) =     -4.94030  eV     1   --> A_1  G_1 D_1   
     e(  2 -  2) =      2.03247  eV     1   --> B_2  G_4 D_2'  
     e(  3 -  4) =      3.70252  eV     2   --> E    G_5 D_5   
     e(  5 -  5) =      6.54716  eV     1   --> A_1  G_1 D_1   
     e(  6 -  6) =      8.46953  eV     1   --> B_2  G_4 D_2'  
     e(  7 -  8) =     10.40672  eV     2   --> E    G_5 D_5   

 **************************************************************************

 **************************************************************************

                    xk=(  -0.36840,   0.00000,   0.00000  )

     Band symmetry, C_4v (4mm)  point group:

     e(  1 -  1) =     -5.28387  eV     1   --> A_1  G_1 D_1   
     e(  2 -  2) =      2.91043  eV     1   --> B_2  G_4 D_2'  
     e(  3 -  4) =      4.10334  eV     2   --> E    G_5 D_5   
     e(  5 -  5) =      6.86201  eV     1   --> A_1  G_1 D_1   
     e(  6 -  6) =      8.92491  eV     1   --> B_2  G_4 D_2'  
     e(  7 -  8) =      9.58968  eV     2   --> E    G_5 D_5   

 **************************************************************************

 **************************************************************************

                    xk=(  -0.26320,   0.00000,   0.00000  )

     Band symmetry, C_4v (4mm)  point group:

     e(  1 -  1) =     -5.54338  eV     1   --> A_1  G_1 D_1   
     e(  2 -  2) =      3.77875  eV     1   --> B_2  G_4 D_2'  
     e(  3 -  4) =      4.54226  eV     2   --> E    G_5 D_5   
     e(  5 -  5) =      7.19852  eV     1   --> A_1  G_1 D_1   
     e(  6 -  6) =      8.77717  eV     1   --> B_2  G_4 D_2'  
     e(  7 -  8) =      8.83389  eV     2   --> E    G_5 D_5   

 **************************************************************************

 **************************************************************************

                    xk=(  -0.15790,   0.00000,   0.00000  )

     Band symmetry, C_4v (4mm)  point group:

     e(  1 -  1) =     -5.71753  eV     1   --> A_1  G_1 D_1   
     e(  2 -  2) =      4.60007  eV     1   --> B_2  G_4 D_2'  
     e(  3 -  4) =      4.97316  eV     2   --> E    G_5 D_5   
     e(  5 -  5) =      7.50060  eV     1   --> A_1  G_1 D_1   
     e(  6 -  6) =      8.14521  eV     1   --> B_2  G_4 D_2'  
     e(  7 -  8) =      8.18856  eV     2   --> E    G_5 D_5   

 **************************************************************************

 **************************************************************************

                    xk=(  -0.05260,   0.00000,   0.00000  )

     Band symmetry, C_4v (4mm)  point group:

     e(  1 -  1) =     -5.80486  eV     1   --> A_1  G_1 D_1   
     e(  2 -  2) =      5.22304  eV     1   --> B_2  G_4 D_2'  
     e(  3 -  4) =      5.28061  eV     2   --> E    G_5 D_5   
     e(  5 -  5) =      7.55474  eV     1   --> B_2  G_4 D_2'  
     e(  6 -  6) =      7.68737  eV     1   --> A_1  G_1 D_1   
     e(  7 -  8) =      7.77291  eV     2   --> E    G_5 D_5   

 **************************************************************************

 **************************************************************************

                    xk=(   0.05260,   0.00000,   0.00000  )

     Band symmetry, C_4v (4mm)  point group:

     e(  1 -  1) =     -5.80486  eV     1   --> A_1  G_1 D_1   
     e(  2 -  2) =      5.22304  eV     1   --> B_2  G_4 D_2'  
     e(  3 -  4) =      5.28061  eV     2   --> E    G_5 D_5   
     e(  5 -  5) =      7.55474  eV     1   --> B_2  G_4 D_2'  
     e(  6 -  6) =      7.68737  eV     1   --> A_1  G_1 D_1   
     e(  7 -  8) =      7.77291  eV     2   --> E    G_5 D_5   

 **************************************************************************

 **************************************************************************

                    xk=(   0.15790,   0.00000,   0.00000  )

     Band symmetry, C_4v (4mm)  point group:

     e(  1 -  1) =     -5.71753  eV     1   --> A_1  G_1 D_1   
     e(  2 -  2) =      4.60007  eV     1   --> B_2  G_4 D_2'  
     e(  3 -  4) =      4.97316  eV     2   --> E    G_5 D_5   
     e(  5 -  5) =      7.50060  eV     1   --> A_1  G_1 D_1   
     e(  6 -  6) =      8.14521  eV     1   --> B_2  G_4 D_2'  
     e(  7 -  8) =      8.18856  eV     2   --> E    G_5 D_5   

 **************************************************************************

 **************************************************************************

                    xk=(   0.26320,   0.00000,   0.00000  )

     Band symmetry, C_4v (4mm)  point group:

     e(  1 -  1) =     -5.54338  eV     1   --> A_1  G_1 D_1   
     e(  2 -  2) =      3.77875  eV     1   --> B_2  G_4 D_2'  
     e(  3 -  4) =      4.54226  eV     2   --> E    G_5 D_5   
     e(  5 -  5) =      7.19852  eV     1   --> A_1  G_1 D_1   
     e(  6 -  6) =      8.77717  eV     1   --> B_2  G_4 D_2'  
     e(  7 -  8) =      8.83389  eV     2   --> E    G_5 D_5   

 **************************************************************************

 **************************************************************************

                    xk=(   0.36840,   0.00000,   0.00000  )

     Band symmetry, C_4v (4mm)  point group:

     e(  1 -  1) =     -5.28387  eV     1   --> A_1  G_1 D_1   
     e(  2 -  2) =      2.91043  eV     1   --> B_2  G_4 D_2'  
     e(  3 -  4) =      4.10334  eV     2   --> E    G_5 D_5   
     e(  5 -  5) =      6.86201  eV     1   --> A_1  G_1 D_1   
     e(  6 -  6) =      8.92491  eV     1   --> B_2  G_4 D_2'  
     e(  7 -  8) =      9.58968  eV     2   --> E    G_5 D_5   

 **************************************************************************

 **************************************************************************

                    xk=(   0.47370,   0.00000,   0.00000  )

     Band symmetry, C_4v (4mm)  point group:

     e(  1 -  1) =     -4.94030  eV     1   --> A_1  G_1 D_1   
     e(  2 -  2) =      2.03247  eV     1   --> B_2  G_4 D_2'  
     e(  3 -  4) =      3.70252  eV     2   --> E    G_5 D_5   
     e(  5 -  5) =      6.54716  eV     1   --> A_1  G_1 D_1   
     e(  6 -  6) =      8.46953  eV     1   --> B_2  G_4 D_2'  
     e(  7 -  8) =     10.40672  eV     2   --> E    G_5 D_5   

 **************************************************************************

 **************************************************************************

                    xk=(   0.57890,   0.00000,   0.00000  )

     Band symmetry, C_4v (4mm)  point group:

     e(  1 -  1) =     -4.51588  eV     1   --> A_1  G_1 D_1   
     e(  2 -  2) =      1.16077  eV     1   --> B_2  G_4 D_2'  
     e(  3 -  4) =      3.36100  eV     2   --> E    G_5 D_5   
     e(  5 -  5) =      6.28935  eV     1   --> A_1  G_1 D_1   
     e(  6 -  6) =      7.84508  eV     1   --> B_2  G_4 D_2'  
     e(  7 -  8) =     11.25987  eV     2   --> E    G_5 D_5   

 **************************************************************************

 **************************************************************************

                    xk=(   0.68420,   0.00000,   0.00000  )

     Band symmetry, C_4v (4mm)  point group:

     e(  1 -  1) =     -4.01321  eV     1   --> A_1  G_1 D_1   
     e(  2 -  2) =      0.30284  eV     1   --> B_2  G_4 D_2'  
     e(  3 -  4) =      3.08836  eV     2   --> E    G_5 D_5   
     e(  5 -  5) =      6.10967  eV     1   --> A_1  G_1 D_1   
     e(  6 -  6) =      7.26048  eV     1   --> B_2  G_4 D_2'  
     e(  7 -  8) =     12.13726  eV     2   --> E    G_5 D_5   

 **************************************************************************

 **************************************************************************

                    xk=(   0.78950,   0.00000,   0.00000  )

     Band symmetry, C_4v (4mm)  point group:

     e(  1 -  1) =     -3.43710  eV     1   --> A_1  G_1 D_1   
     e(  2 -  2) =     -0.53142  eV     1   --> B_2  G_4 D_2'  
     e(  3 -  4) =      2.89058  eV     2   --> E    G_5 D_5   
     e(  5 -  5) =      6.02272  eV     1   --> A_1  G_1 D_1   
     e(  6 -  6) =      6.77669  eV     1   --> B_2  G_4 D_2'  
     e(  7 -  8) =     13.02327  eV     2   --> E    G_5 D_5   

 **************************************************************************

 **************************************************************************

                    xk=(   0.89470,   0.00000,   0.00000  )

     Band symmetry, C_4v (4mm)  point group:

     e(  1 -  1) =     -2.79381  eV     1   --> A_1  G_1 D_1   
     e(  2 -  2) =     -1.33151  eV     1   --> B_2  G_4 D_2'  
     e(  3 -  4) =      2.77092  eV     2   --> E    G_5 D_5   
     e(  5 -  5) =      6.03891  eV     1   --> A_1  G_1 D_1   
     e(  6 -  6) =      6.41132  eV     1   --> B_2  G_4 D_2'  
     e(  7 -  8) =     13.86763  eV     2   --> E    G_5 D_5   

 **************************************************************************

 **************************************************************************

                    xk=(   1.00000,   0.00000,   0.00000  )

     zone border point and non-symmorphic group 
     symmetry decomposition not available

 **************************************************************************

     BANDS        :      1.13s CPU      1.14s WALL


   This run was terminated on:  11:51:18   9Apr2023            

=------------------------------------------------------------------------------=
   JOB DONE.
=------------------------------------------------------------------------------=
