
     Program BANDS v.6.7MaX starts on 12Apr2023 at 13:13:43 

     This program is part of the open-source Quantum ESPRESSO suite
     for quantum simulation of materials; please cite
         "P. Giannozzi et al., J. Phys.:Condens. Matter 21 395502 (2009);
         "P. Giannozzi et al., J. Phys.:Condens. Matter 29 465901 (2017);
          URL http://www.quantum-espresso.org", 
     in publications or presentations arising from this work. More details at
     http://www.quantum-espresso.org/quote

     Parallel version (MPI), running on     1 processors

     MPI processes distributed on     1 nodes

     Reading xml data from directory:

     tmp/silicon.save/

     IMPORTANT: XC functional enforced from input :
     Exchange-correlation= PBE
                           (   1   4   3   4   0   0   0)
     Any further DFT definition will be discarded
     Please, verify this is what you really want


     G-vector sticks info
     --------------------
     sticks:   dense  smooth     PW     G-vecs:    dense   smooth      PW
     Sum         793     793    235                14649    14649    2277

     Reading collected, re-writing distributed wavefunctions
     high-symmetry point:  0.0000 0.0000 0.0000   x coordinate   0.0000
     high-symmetry point:  1.0000 0.0000 0.0000   x coordinate   1.0000

     Plottable bands (eV) written to file si_bands.dat.gnu
     Bands written to file si_bands.dat

 **************************************************************************

                    xk=(   0.00000,   0.00000,   0.00000  )

     point group O_h (m-3m) 
     there are 10 classes
     the character table:

       E     8C3   3C2   6C4   6C2'  i     8S6   3s_h  6S4   6s_d 
A_1g   1.00  1.00  1.00  1.00  1.00  1.00  1.00  1.00  1.00  1.00
A_2g   1.00  1.00  1.00 -1.00 -1.00  1.00  1.00  1.00 -1.00 -1.00
E_g    2.00 -1.00  2.00  0.00  0.00  2.00 -1.00  2.00  0.00  0.00
T_1g   3.00  0.00 -1.00  1.00 -1.00  3.00  0.00 -1.00  1.00 -1.00
T_2g   3.00  0.00 -1.00 -1.00  1.00  3.00  0.00 -1.00 -1.00  1.00
A_1u   1.00  1.00  1.00  1.00  1.00 -1.00 -1.00 -1.00 -1.00 -1.00
A_2u   1.00  1.00  1.00 -1.00 -1.00 -1.00 -1.00 -1.00  1.00  1.00
E_u    2.00 -1.00  2.00  0.00  0.00 -2.00  1.00 -2.00  0.00  0.00
T_1u   3.00  0.00 -1.00  1.00 -1.00 -3.00  0.00  1.00 -1.00  1.00
T_2u   3.00  0.00 -1.00 -1.00  1.00 -3.00  0.00  1.00  1.00 -1.00

     the symmetry operations in each class and the name of the first element:

     E        1
                                                                 
     8C3     17   19   20   18   24   21   22   23
                                                                 
     3C2      2    4    3
                                                                 
     6C4      7    8   15   16   12   11
                                                                 
     6C2'     5    6   14   13   10    9
                                                                 
     i       25
                                                                 
     8S6     41   43   44   42   48   45   46   47
                                                                 
     3s_h    26   28   27
                                                                 
     6S4     31   32   39   40   36   35
                                                                 
     6s_d    29   30   38   37   34   33
                                                                 

     Band symmetry, O_h (m-3m)  point group:

     e(  1 -  1) =     -6.10204  eV     1   --> A_1g G_1   G_1+
     e(  2 -  4) =      4.99265  eV     3   --> T_2g G_25' G_5+
     e(  5 -  5) =      7.07763  eV     1   --> A_2u G_2'  G_2-
     e(  6 -  8) =      7.49841  eV     3   --> T_1u G_15  G_4-

 **************************************************************************

 **************************************************************************

                    xk=(   0.05260,   0.00000,   0.00000  )

     point group C_4v (4mm) 
     there are  5 classes
     the character table:

       E     2C4   C2    2s_v  2s_d 
A_1    1.00  1.00  1.00  1.00  1.00
A_2    1.00  1.00  1.00 -1.00 -1.00
B_1    1.00 -1.00  1.00  1.00 -1.00
B_2    1.00 -1.00  1.00 -1.00  1.00
E      2.00  0.00 -2.00  0.00  0.00

     the symmetry operations in each class and the name of the first element:

     E        1
                                                                 
     2C4      3    4
                                                                 
     C2       2
                                                                 
     2s_v     5    6
                                                                 
     2s_d     7    8
                                                                 

     Band symmetry, C_4v (4mm)  point group:

     e(  1 -  1) =     -6.09118  eV     1   --> A_1  G_1 D_1   
     e(  2 -  2) =      4.88733  eV     1   --> B_2  G_4 D_2'  
     e(  3 -  4) =      4.94921  eV     2   --> E    G_5 D_5   
     e(  5 -  5) =      7.18104  eV     1   --> B_2  G_4 D_2'  
     e(  6 -  6) =      7.47211  eV     1   --> A_1  G_1 D_1   
     e(  7 -  8) =      7.55531  eV     2   --> E    G_5 D_5   

 **************************************************************************

 **************************************************************************

                    xk=(   0.10530,   0.00000,   0.00000  )

     Band symmetry, C_4v (4mm)  point group:

     e(  1 -  1) =     -6.05854  eV     1   --> A_1  G_1 D_1   
     e(  2 -  2) =      4.61798  eV     1   --> B_2  G_4 D_2'  
     e(  3 -  4) =      4.82948  eV     2   --> E    G_5 D_5   
     e(  5 -  5) =      7.39639  eV     1   --> A_1  G_1 D_1   
     e(  6 -  6) =      7.44232  eV     1   --> B_2  G_4 D_2'  
     e(  7 -  8) =      7.71545  eV     2   --> E    G_5 D_5   

 **************************************************************************

 **************************************************************************

                    xk=(   0.15790,   0.00000,   0.00000  )

     Band symmetry, C_4v (4mm)  point group:

     e(  1 -  1) =     -6.00428  eV     1   --> A_1  G_1 D_1   
     e(  2 -  2) =      4.26065  eV     1   --> B_2  G_4 D_2'  
     e(  3 -  4) =      4.65765  eV     2   --> E    G_5 D_5   
     e(  5 -  5) =      7.28032  eV     1   --> A_1  G_1 D_1   
     e(  6 -  6) =      7.77739  eV     1   --> B_2  G_4 D_2'  
     e(  7 -  8) =      7.95430  eV     2   --> E    G_5 D_5   

 **************************************************************************

 **************************************************************************

                    xk=(   0.21050,   0.00000,   0.00000  )

     Band symmetry, C_4v (4mm)  point group:

     e(  1 -  1) =     -5.92847  eV     1   --> A_1  G_1 D_1   
     e(  2 -  2) =      3.86055  eV     1   --> B_2  G_4 D_2'  
     e(  3 -  4) =      4.45636  eV     2   --> E    G_5 D_5   
     e(  5 -  5) =      7.13517  eV     1   --> A_1  G_1 D_1   
     e(  6 -  6) =      8.12361  eV     1   --> B_2  G_4 D_2'  
     e(  7 -  8) =      8.24899  eV     2   --> E    G_5 D_5   

 **************************************************************************

 **************************************************************************

                    xk=(   0.26320,   0.00000,   0.00000  )

     Band symmetry, C_4v (4mm)  point group:

     e(  1 -  1) =     -5.83101  eV     1   --> A_1  G_1 D_1   
     e(  2 -  2) =      3.43890  eV     1   --> B_2  G_4 D_2'  
     e(  3 -  4) =      4.24168  eV     2   --> E    G_5 D_5   
     e(  5 -  5) =      6.97196  eV     1   --> A_1  G_1 D_1   
     e(  6 -  6) =      8.42530  eV     1   --> B_2  G_4 D_2'  
     e(  7 -  8) =      8.58333  eV     2   --> E    G_5 D_5   

 **************************************************************************

 **************************************************************************

                    xk=(   0.31580,   0.00000,   0.00000  )

     Band symmetry, C_4v (4mm)  point group:

     e(  1 -  1) =     -5.71245  eV     1   --> A_1  G_1 D_1   
     e(  2 -  2) =      3.00795  eV     1   --> B_2  G_4 D_2'  
     e(  3 -  4) =      4.02519  eV     2   --> E    G_5 D_5   
     e(  5 -  5) =      6.80118  eV     1   --> A_1  G_1 D_1   
     e(  6 -  6) =      8.61377  eV     1   --> B_2  G_4 D_2'  
     e(  7 -  8) =      8.94486  eV     2   --> E    G_5 D_5   

 **************************************************************************

 **************************************************************************

                    xk=(   0.36840,   0.00000,   0.00000  )

     Band symmetry, C_4v (4mm)  point group:

     e(  1 -  1) =     -5.57283  eV     1   --> A_1  G_1 D_1   
     e(  2 -  2) =      2.57242  eV     1   --> B_2  G_4 D_2'  
     e(  3 -  4) =      3.81338  eV     2   --> E    G_5 D_5   
     e(  5 -  5) =      6.63051  eV     1   --> A_1  G_1 D_1   
     e(  6 -  6) =      8.62966  eV     1   --> B_2  G_4 D_2'  
     e(  7 -  8) =      9.32684  eV     2   --> E    G_5 D_5   

 **************************************************************************

 **************************************************************************

                    xk=(   0.42110,   0.00000,   0.00000  )

     Band symmetry, C_4v (4mm)  point group:

     e(  1 -  1) =     -5.41207  eV     1   --> A_1  G_1 D_1   
     e(  2 -  2) =      2.13453  eV     1   --> B_2  G_4 D_2'  
     e(  3 -  4) =      3.61038  eV     2   --> E    G_5 D_5   
     e(  5 -  5) =      6.46585  eV     1   --> A_1  G_1 D_1   
     e(  6 -  6) =      8.47837  eV     1   --> B_2  G_4 D_2'  
     e(  7 -  8) =      9.72513  eV     2   --> E    G_5 D_5   

 **************************************************************************

 **************************************************************************

                    xk=(   0.47370,   0.00000,   0.00000  )

     Band symmetry, C_4v (4mm)  point group:

     e(  1 -  1) =     -5.23109  eV     1   --> A_1  G_1 D_1   
     e(  2 -  2) =      1.69785  eV     1   --> B_2  G_4 D_2'  
     e(  3 -  4) =      3.41999  eV     2   --> E    G_5 D_5   
     e(  5 -  5) =      6.31263  eV     1   --> A_1  G_1 D_1   
     e(  6 -  6) =      8.22403  eV     1   --> B_2  G_4 D_2'  
     e(  7 -  8) =     10.13480  eV     2   --> E    G_5 D_5   

 **************************************************************************

 **************************************************************************

                    xk=(   0.52630,   0.00000,   0.00000  )

     Band symmetry, C_4v (4mm)  point group:

     e(  1 -  1) =     -5.02994  eV     1   --> A_1  G_1 D_1   
     e(  2 -  2) =      1.26286  eV     1   --> B_2  G_4 D_2'  
     e(  3 -  4) =      3.24394  eV     2   --> E    G_5 D_5   
     e(  5 -  5) =      6.17421  eV     1   --> A_1  G_1 D_1   
     e(  6 -  6) =      7.92521  eV     1   --> B_2  G_4 D_2'  
     e(  7 -  8) =     10.55415  eV     2   --> E    G_5 D_5   

 **************************************************************************

 **************************************************************************

                    xk=(   0.57890,   0.00000,   0.00000  )

     Band symmetry, C_4v (4mm)  point group:

     e(  1 -  1) =     -4.80901  eV     1   --> A_1  G_1 D_1   
     e(  2 -  2) =      0.83067  eV     1   --> B_2  G_4 D_2'  
     e(  3 -  4) =      3.08372  eV     2   --> E    G_5 D_5   
     e(  5 -  5) =      6.05349  eV     1   --> A_1  G_1 D_1   
     e(  6 -  6) =      7.61675  eV     1   --> B_2  G_4 D_2'  
     e(  7 -  8) =     10.98135  eV     2   --> E    G_5 D_5   

 **************************************************************************

 **************************************************************************

                    xk=(   0.63160,   0.00000,   0.00000  )

     Band symmetry, C_4v (4mm)  point group:

     e(  1 -  1) =     -4.56831  eV     1   --> A_1  G_1 D_1   
     e(  2 -  2) =      0.40150  eV     1   --> B_2  G_4 D_2'  
     e(  3 -  4) =      2.94020  eV     2   --> E    G_5 D_5   
     e(  5 -  5) =      5.95262  eV     1   --> A_1  G_1 D_1   
     e(  6 -  6) =      7.31672  eV     1   --> B_2  G_4 D_2'  
     e(  7 -  8) =     11.41573  eV     2   --> E    G_5 D_5   

 **************************************************************************

 **************************************************************************

                    xk=(   0.68420,   0.00000,   0.00000  )

     Band symmetry, C_4v (4mm)  point group:

     e(  1 -  1) =     -4.30926  eV     1   --> A_1  G_1 D_1   
     e(  2 -  2) =     -0.02198  eV     1   --> B_2  G_4 D_2'  
     e(  3 -  4) =      2.81475  eV     2   --> E    G_5 D_5   
     e(  5 -  5) =      5.87386  eV     1   --> A_1  G_1 D_1   
     e(  6 -  6) =      7.03631  eV     1   --> B_2  G_4 D_2'  
     e(  7 -  8) =     11.85415  eV     2   --> E    G_5 D_5   

 **************************************************************************

 **************************************************************************

                    xk=(   0.73680,   0.00000,   0.00000  )

     Band symmetry, C_4v (4mm)  point group:

     e(  1 -  1) =     -4.03202  eV     1   --> A_1  G_1 D_1   
     e(  2 -  2) =     -0.43949  eV     1   --> B_2  G_4 D_2'  
     e(  3 -  4) =      2.70771  eV     2   --> E    G_5 D_5   
     e(  5 -  5) =      5.81857  eV     1   --> A_1  G_1 D_1   
     e(  6 -  6) =      6.78049  eV     1   --> B_2  G_4 D_2'  
     e(  7 -  8) =     12.29549  eV     2   --> E    G_5 D_5   

 **************************************************************************

 **************************************************************************

                    xk=(   0.78950,   0.00000,   0.00000  )

     Band symmetry, C_4v (4mm)  point group:

     e(  1 -  1) =     -3.73667  eV     1   --> A_1  G_1 D_1   
     e(  2 -  2) =     -0.85063  eV     1   --> B_2  G_4 D_2'  
     e(  3 -  4) =      2.61940  eV     2   --> E    G_5 D_5   
     e(  5 -  5) =      5.78808  eV     1   --> A_1  G_1 D_1   
     e(  6 -  6) =      6.55191  eV     1   --> B_2  G_4 D_2'  
     e(  7 -  8) =     12.73724  eV     2   --> E    G_5 D_5   

 **************************************************************************

 **************************************************************************

                    xk=(   0.84210,   0.00000,   0.00000  )

     Band symmetry, C_4v (4mm)  point group:

     e(  1 -  1) =     -3.42507  eV     1   --> A_1  G_1 D_1   
     e(  2 -  2) =     -1.25267  eV     1   --> B_2  G_4 D_2'  
     e(  3 -  4) =      2.55052  eV     2   --> E    G_5 D_5   
     e(  5 -  5) =      5.78367  eV     1   --> A_1  G_1 D_1   
     e(  6 -  6) =      6.35305  eV     1   --> B_2  G_4 D_2'  
     e(  7 -  8) =     13.17080  eV     2   --> E    G_5 D_5   

 **************************************************************************

 **************************************************************************

                    xk=(   0.89470,   0.00000,   0.00000  )

     Band symmetry, C_4v (4mm)  point group:

     e(  1 -  1) =     -3.09750  eV     1   --> A_1  G_1 D_1   
     e(  2 -  2) =     -1.64516  eV     1   --> B_2  G_4 D_2'  
     e(  3 -  4) =      2.50114  eV     2   --> E    G_5 D_5   
     e(  5 -  5) =      5.80629  eV     1   --> A_1  G_1 D_1   
     e(  6 -  6) =      6.18417  eV     1   --> B_2  G_4 D_2'  
     e(  7 -  8) =     13.58015  eV     2   --> E    G_5 D_5   

 **************************************************************************

 **************************************************************************

                    xk=(   0.94740,   0.00000,   0.00000  )

     Band symmetry, C_4v (4mm)  point group:

     e(  1 -  1) =     -2.75419  eV     1   --> A_1  G_1 D_1   
     e(  2 -  2) =     -2.02762  eV     1   --> B_2  G_4 D_2'  
     e(  3 -  4) =      2.47139  eV     2   --> E    G_5 D_5   
     e(  5 -  5) =      5.85699  eV     1   --> A_1  G_1 D_1   
     e(  6 -  6) =      6.04517  eV     1   --> B_2  G_4 D_2'  
     e(  7 -  8) =     13.91903  eV     2   --> E    G_5 D_5   

 **************************************************************************

 **************************************************************************

                    xk=(   1.00000,   0.00000,   0.00000  )

     zone border point and non-symmorphic group 
     symmetry decomposition not available

 **************************************************************************

     BANDS        :      1.20s CPU      1.23s WALL


   This run was terminated on:  13:13:44  12Apr2023            

=------------------------------------------------------------------------------=
   JOB DONE.
=------------------------------------------------------------------------------=
